/*--------------------------------*- C++ -*----------------------------------*\
| =========                 |                                                 |
| \\      /  F ield         | OpenFOAM: The Open Source CFD Toolbox           |
|  \\    /   O peration     | Version:  1.7.x                                 |
|   \\  /    A nd           | Web:      www.OpenFOAM.com                      |
|    \\/     M anipulation  |                                                 |
\*---------------------------------------------------------------------------*/
FoamFile
{
    version     2.0;
    format      ascii;
    class       volScalarField;
    location    "0.2";
    object      alpha1;
}
// * * * * * * * * * * * * * * * * * * * * * * * * * * * * * * * * * * * * * //

dimensions      [0 -3 0 0 1 0 0];

internalField   nonuniform List<scalar> 
8000
(
-2.94694e-26
-1.01183e-24
1.11965e-22
1.62778e-21
5.40874e-20
4.08804e-19
8.22763e-19
-3.4558e-20
-1.96226e-19
8.16125e-21
1.35343e-24
3.32027e-22
-8.53759e-21
-2.40458e-19
-1.34888e-17
-1.39784e-16
-4.5586e-16
-2.64165e-16
4.64339e-17
-1.12606e-18
6.7139e-25
4.31884e-22
-1.06849e-20
-2.92438e-19
-1.67337e-17
-1.72855e-16
-5.58517e-16
-3.16277e-16
5.64181e-17
-1.39498e-18
6.18461e-24
3.58663e-22
-9.96011e-21
-2.93122e-19
-1.64323e-17
-1.69741e-16
-5.48691e-16
-3.09819e-16
5.48433e-17
-1.33343e-18
1.31171e-23
3.00191e-22
-9.24141e-21
-2.89479e-19
-1.63717e-17
-1.70301e-16
-5.53449e-16
-3.14949e-16
5.54573e-17
-1.31707e-18
2.18085e-23
2.52674e-22
-8.56121e-21
-2.82286e-19
-1.66738e-17
-1.75924e-16
-5.7733e-16
-3.33969e-16
5.86484e-17
-1.36979e-18
3.30221e-23
2.06703e-22
-7.86398e-21
-2.7008e-19
-1.72815e-17
-1.86133e-16
-6.18921e-16
-3.65749e-16
6.41862e-17
-1.48354e-18
4.75042e-23
1.49622e-22
-7.05879e-21
-2.49745e-19
-1.79726e-17
-1.98666e-16
-6.71349e-16
-4.07101e-16
7.14787e-17
-1.62074e-18
5.58092e-23
-2.51607e-23
-4.11375e-21
-1.89508e-19
-1.49442e-17
-1.70458e-16
-5.91427e-16
-3.74342e-16
6.45056e-17
-1.36057e-18
-2.86376e-25
3.65313e-24
3.27017e-22
6.89682e-21
1.55179e-19
1.10926e-18
2.61169e-18
1.03644e-18
-4.44314e-19
1.7171e-20
-1.48687e-24
5.25173e-23
-1.16842e-21
-7.80065e-21
-5.33446e-19
-4.35484e-18
-9.01664e-18
2.8835e-19
2.25053e-18
-1.05589e-19
2.54514e-22
-8.27236e-21
1.65019e-19
3.85497e-18
1.91364e-16
1.80801e-15
5.40544e-15
2.76732e-15
-5.56716e-16
1.63183e-17
3.59379e-22
-1.07532e-20
2.07579e-19
4.71297e-18
2.39164e-16
2.25421e-15
6.6774e-15
3.33163e-15
-6.80559e-16
2.06291e-17
2.80205e-22
-9.5707e-21
2.00769e-19
4.81557e-18
2.36987e-16
2.22658e-15
6.58649e-15
3.27376e-15
-6.63602e-16
1.99883e-17
1.99649e-22
-8.92197e-21
1.96615e-19
4.88197e-18
2.39014e-16
2.25216e-15
6.68366e-15
3.34792e-15
-6.74381e-16
2.01349e-17
1.16869e-22
-8.79209e-21
1.9587e-19
4.92161e-18
2.47161e-16
2.35099e-15
7.02886e-15
3.58102e-15
-7.18338e-16
2.13669e-17
2.21548e-23
-9.08328e-21
1.97817e-19
4.90943e-18
2.60797e-16
2.51868e-15
7.61096e-15
3.96567e-15
-7.93952e-16
2.36276e-17
-9.67283e-23
-9.68185e-21
2.00842e-19
4.78992e-18
2.76764e-16
2.72601e-15
8.34898e-15
4.47053e-15
-8.94817e-16
2.65347e-17
-2.75485e-22
-6.74362e-21
1.55849e-19
3.95929e-18
2.36139e-16
2.37101e-15
7.41761e-15
4.15316e-15
-8.14813e-16
2.30154e-17
1.51462e-24
1.10436e-23
-3.256e-21
-5.11283e-20
-1.3183e-18
-9.40707e-18
-2.06696e-17
-5.91574e-18
4.43997e-18
-1.95451e-19
4.82266e-23
-1.0633e-21
9.87004e-21
-5.3971e-20
3.55282e-18
3.07617e-17
5.43511e-17
-2.05525e-17
-1.84661e-17
1.05645e-18
-6.74662e-21
1.37054e-19
-2.51853e-18
-4.99092e-17
-2.25674e-15
-1.96161e-14
-5.37651e-14
-2.36623e-14
5.2162e-15
-1.75847e-16
-9.43751e-21
1.7973e-19
-3.20055e-18
-6.14641e-17
-2.85106e-15
-2.47424e-14
-6.71776e-14
-2.8677e-14
6.42196e-15
-2.24932e-16
-8.50808e-21
1.64207e-19
-3.15608e-18
-6.364e-17
-2.84522e-15
-2.45618e-14
-6.65073e-14
-2.82527e-14
6.28031e-15
-2.19053e-16
-7.82242e-21
1.58787e-19
-3.16821e-18
-6.55376e-17
-2.89297e-15
-2.49861e-14
-6.77835e-14
-2.90308e-14
6.4083e-15
-2.22516e-16
-7.44827e-21
1.64021e-19
-3.25219e-18
-6.72752e-17
-3.02085e-15
-2.62713e-14
-7.17072e-14
-3.12808e-14
6.86692e-15
-2.38497e-16
-7.29525e-21
1.79281e-19
-3.39979e-18
-6.85041e-17
-3.22289e-15
-2.83845e-14
-7.82137e-14
-3.4974e-14
7.65192e-15
-2.66874e-16
-7.19004e-21
2.03916e-19
-3.58455e-18
-6.84209e-17
-3.45898e-15
-3.09852e-14
-8.64402e-14
-3.98384e-14
8.70536e-15
-3.04293e-16
-4.03122e-21
1.6253e-19
-2.959e-18
-5.84227e-17
-2.97908e-15
-2.7045e-14
-7.68901e-14
-3.72382e-14
7.97023e-15
-2.67113e-16
3.13344e-23
-9.06154e-22
2.74901e-20
2.08475e-19
7.94094e-18
5.50371e-17
9.66713e-17
-4.82412e-18
-3.34276e-17
1.82918e-18
-1.01254e-21
1.74729e-20
-6.64126e-20
2.00614e-18
-7.82813e-18
-9.77566e-17
-1.28744e-17
3.83117e-16
1.31543e-16
-9.90165e-18
1.3377e-19
-2.03033e-18
3.24253e-17
5.66059e-16
2.39054e-14
1.92791e-13
4.86054e-13
1.8089e-13
-4.56459e-14
1.83009e-15
1.90712e-19
-2.71334e-18
4.17443e-17
7.04625e-16
3.05972e-14
2.46436e-13
6.14974e-13
2.20419e-13
-5.68954e-14
2.3899e-15
1.79602e-19
-2.51402e-18
4.16319e-17
7.38498e-16
3.07385e-14
2.45898e-13
6.11357e-13
2.17779e-13
-5.58593e-14
2.33815e-15
1.74585e-19
-2.47201e-18
4.23414e-17
7.68833e-16
3.14343e-14
2.51209e-13
6.25206e-13
2.2476e-13
-5.71894e-14
2.38634e-15
1.78143e-19
-2.60728e-18
4.41401e-17
7.97318e-16
3.30224e-14
2.65369e-13
6.64049e-13
2.43788e-13
-6.15632e-14
2.57361e-15
1.89491e-19
-2.9185e-18
4.6942e-17
8.19565e-16
3.54473e-14
2.8814e-13
7.27567e-13
2.74858e-13
-6.90133e-14
2.9026e-15
2.05495e-19
-3.4e-18
5.03465e-17
8.24989e-16
3.82242e-14
3.15721e-13
8.0693e-13
3.15715e-13
-7.89717e-14
3.3362e-15
1.46872e-19
-2.79026e-18
4.23591e-17
7.11592e-16
3.29181e-14
2.7483e-13
7.15584e-13
2.96622e-13
-7.2185e-14
2.91008e-15
-1.09291e-21
1.96115e-20
-1.92046e-19
1.15974e-18
-1.70025e-17
-9.5777e-17
1.83214e-16
5.34488e-16
2.21281e-16
-1.6511e-17
1.63437e-20
-2.28637e-19
2.27188e-19
-3.24951e-17
-1.77432e-16
-7.86452e-16
-3.68699e-15
-4.56347e-15
-7.70209e-16
8.22838e-17
-1.98328e-18
2.46122e-17
-3.75404e-16
-5.54812e-15
-2.28667e-13
-1.73417e-12
-4.03524e-12
-1.22133e-12
3.38631e-13
-1.56609e-14
-2.87294e-18
3.34774e-17
-4.90311e-16
-6.95386e-15
-2.96469e-13
-2.2469e-12
-5.17165e-12
-1.49068e-12
4.25712e-13
-2.07311e-14
-2.76246e-18
3.13057e-17
-4.93573e-16
-7.37869e-15
-2.99817e-13
-2.25424e-12
-5.16423e-12
-1.47637e-12
4.19188e-13
-2.03424e-14
-2.74942e-18
3.10628e-17
-5.06354e-16
-7.75271e-15
-3.08033e-13
-2.31123e-12
-5.2968e-12
-1.53056e-12
4.30066e-13
-2.08249e-14
-2.88202e-18
3.31197e-17
-5.32535e-16
-8.0896e-15
-3.2483e-13
-2.44893e-12
-5.64127e-12
-1.67161e-12
4.6437e-13
-2.25584e-14
-3.15566e-18
3.752e-17
-5.71158e-16
-8.34001e-15
-3.49682e-13
-2.66548e-12
-6.19619e-12
-1.90087e-12
5.2283e-13
-2.55951e-14
-3.52131e-18
4.41748e-17
-6.16647e-16
-8.39029e-15
-3.77361e-13
-2.92224e-12
-6.87886e-12
-2.20243e-12
6.01005e-13
-2.96087e-14
-2.64368e-18
3.64843e-17
-5.20609e-16
-7.27925e-15
-3.23808e-13
-2.53024e-12
-6.06905e-12
-2.08527e-12
5.49949e-13
-2.5757e-14
2.06978e-20
-2.89319e-19
8.92631e-19
-4.01043e-17
-3.8019e-16
-2.65373e-15
-9.61179e-15
-7.56228e-15
-1.15965e-15
1.33703e-16
-2.64579e-19
2.85053e-18
8.57382e-19
3.99082e-16
3.81459e-15
2.15026e-14
6.14356e-14
4.2818e-14
4.24621e-15
-7.34551e-16
2.92899e-17
-2.83899e-16
3.64889e-15
4.58762e-14
1.96545e-12
1.40978e-11
3.01668e-11
6.97122e-12
-2.38878e-12
1.42853e-13
4.32905e-17
-3.92339e-16
4.81079e-15
5.74599e-14
2.5712e-12
1.84373e-11
3.89555e-11
8.388e-12
-3.01989e-12
1.92821e-13
4.22081e-17
-3.69556e-16
4.85322e-15
6.1852e-14
2.6144e-12
1.85794e-11
3.90336e-11
8.30649e-12
-2.97986e-12
1.89948e-13
4.25528e-17
-3.68851e-16
4.99744e-15
6.55799e-14
2.69552e-12
1.91013e-11
4.01264e-11
8.6596e-12
-3.05999e-12
1.94857e-13
4.521e-17
-3.95715e-16
5.28749e-15
6.8642e-14
2.84908e-12
2.02777e-11
4.28135e-11
9.55163e-12
-3.30951e-12
2.11642e-13
5.01691e-17
-4.51093e-16
5.71576e-15
7.05504e-14
3.07038e-12
2.20946e-11
4.70904e-11
1.10006e-11
-3.73654e-12
2.41007e-13
5.65872e-17
-5.33459e-16
6.225e-15
7.03625e-14
3.31113e-12
2.42142e-11
5.23021e-11
1.29314e-11
-4.31033e-12
2.79589e-13
4.2893e-17
-4.40103e-16
5.27417e-15
6.15414e-14
2.8359e-12
2.09105e-11
4.61043e-11
1.25317e-11
-3.96075e-12
2.4093e-13
-3.62456e-19
3.85253e-18
-2.55066e-19
5.88252e-16
7.92621e-15
5.18252e-14
1.40193e-13
7.48665e-14
5.01649e-15
-1.18077e-15
3.57707e-18
-3.0451e-17
-3.6562e-17
-4.14996e-15
-5.231e-14
-3.08777e-13
-7.32028e-13
-3.44798e-13
-1.84447e-14
5.19619e-15
-3.4017e-16
2.7931e-15
-3.31829e-14
-3.20736e-13
-1.51363e-11
-1.04355e-10
-2.06593e-10
-3.30209e-11
1.38688e-11
-1.02881e-12
-5.08404e-16
3.91338e-15
-4.41946e-14
-3.98012e-13
-1.98779e-11
-1.3705e-10
-2.67533e-10
-3.82743e-11
1.74988e-11
-1.39735e-12
-4.9901e-16
3.70721e-15
-4.46938e-14
-4.35694e-13
-2.02877e-11
-1.38504e-10
-2.68585e-10
-3.77351e-11
1.7225e-11
-1.37387e-12
-5.06466e-16
3.71339e-15
-4.61392e-14
-4.66513e-13
-2.09632e-11
-1.42621e-10
-2.76434e-10
-3.96672e-11
1.76419e-11
-1.40789e-12
-5.42272e-16
3.99679e-15
-4.89959e-14
-4.89e-13
-2.21836e-11
-1.5155e-10
-2.95259e-10
-4.45171e-11
1.90746e-11
-1.53093e-12
-6.06732e-16
4.56959e-15
-5.32028e-14
-4.98964e-13
-2.39115e-11
-1.65198e-10
-3.25091e-10
-5.2466e-11
2.15924e-11
-1.75006e-12
-6.89425e-16
5.40998e-15
-5.81903e-14
-4.90321e-13
-2.57627e-11
-1.80976e-10
-3.61337e-10
-6.33444e-11
2.50496e-11
-2.04351e-12
-5.25715e-16
4.44554e-15
-4.92596e-14
-4.34689e-13
-2.2105e-11
-1.56513e-10
-3.19511e-10
-6.41545e-11
2.33113e-11
-1.76569e-12
5.12967e-18
-4.2912e-17
-6.75378e-17
-6.53362e-15
-1.04443e-13
-6.65621e-13
-1.55664e-12
-6.14745e-13
-8.82111e-15
8.40501e-15
-4.99696e-17
2.86624e-16
4.20437e-16
3.68474e-14
6.12516e-13
3.71371e-12
8.03514e-12
2.57546e-12
-2.50569e-14
-4.48149e-14
4.21541e-15
-2.6482e-14
2.53273e-13
1.47763e-12
1.05951e-10
7.11859e-10
1.29301e-09
1.01364e-10
-7.74916e-11
8.68679e-12
6.32684e-15
-3.7186e-14
3.38223e-13
1.7216e-12
1.38918e-10
9.3394e-10
1.66743e-09
9.90399e-11
-9.63459e-11
1.18158e-11
6.21907e-15
-3.53484e-14
3.38821e-13
1.9764e-12
1.42126e-10
9.45494e-10
1.67491e-09
9.48287e-11
-9.41242e-11
1.15769e-11
6.32646e-15
-3.54814e-14
3.48371e-13
2.16811e-12
1.47029e-10
9.74354e-10
1.72459e-09
1.02905e-10
-9.58005e-11
1.18237e-11
6.80201e-15
-3.82433e-14
3.71126e-13
2.26278e-12
1.55618e-10
1.03559e-09
1.84289e-09
1.23625e-10
-1.03342e-10
1.28336e-11
7.65504e-15
-4.37705e-14
4.07014e-13
2.23074e-12
1.67634e-10
1.12866e-09
2.03046e-09
1.58496e-10
-1.1723e-10
1.46744e-11
8.75667e-15
-5.18407e-14
4.51888e-13
2.05963e-12
1.80393e-10
1.23591e-09
2.25944e-09
2.09538e-10
-1.37106e-10
1.71923e-11
6.72323e-15
-4.27912e-14
3.85061e-13
1.93514e-12
1.55737e-10
1.07517e-09
2.01723e-09
2.43695e-10
-1.31337e-10
1.4962e-11
-7.35985e-17
4.09141e-16
9.02008e-16
5.88228e-14
1.16597e-12
7.38924e-12
1.59351e-11
4.66644e-12
-2.72312e-13
-7.40122e-14
5.81941e-16
-2.56872e-15
-2.46893e-15
-2.62468e-13
-5.75447e-12
-3.52703e-11
-6.83921e-11
-1.40115e-11
-2.64822e-13
3.58214e-13
-4.0345e-14
2.269e-13
-1.88456e-12
-2.432e-12
-6.71346e-10
-4.49824e-09
-7.56782e-09
1.24224e-11
3.29973e-10
-5.33523e-11
-6.06522e-14
3.19071e-13
-2.53777e-12
-1.53635e-12
-8.75097e-10
-5.86862e-09
-9.68169e-09
2.16e-10
4.0127e-10
-7.19667e-11
-5.95934e-14
3.0508e-13
-2.5214e-12
-2.95671e-12
-8.96801e-10
-5.94795e-09
-9.72791e-09
2.4287e-10
3.84758e-10
-6.95598e-11
-6.07149e-14
3.07099e-13
-2.5816e-12
-3.88309e-12
-9.28258e-10
-6.1318e-09
-1.00188e-08
2.17071e-10
3.85596e-10
-7.03696e-11
-6.54395e-14
3.30869e-13
-2.75562e-12
-3.90647e-12
-9.81762e-10
-6.51352e-09
-1.07041e-08
1.503e-10
4.13213e-10
-7.60006e-11
-7.38706e-14
3.77521e-13
-3.04538e-12
-2.83975e-12
-1.05566e-09
-7.09006e-09
-1.17901e-08
3.1768e-11
4.69942e-10
-8.69088e-11
-8.49306e-14
4.45008e-13
-3.42018e-12
-8.67265e-13
-1.13378e-09
-7.75544e-09
-1.3126e-08
-1.66905e-10
5.57172e-10
-1.02674e-10
-6.56391e-14
3.68386e-13
-2.91418e-12
-2.06664e-12
-9.88084e-10
-6.81268e-09
-1.18714e-08
-5.10797e-10
5.59385e-10
-9.08514e-11
8.75873e-16
-3.70745e-15
-6.73463e-15
-4.12187e-13
-1.06783e-11
-6.78066e-11
-1.32835e-10
-2.59174e-11
1.52156e-12
6.31656e-13
-6.69973e-15
1.79671e-14
-3.81183e-15
1.11036e-12
4.41124e-11
2.7722e-10
5.00456e-10
5.0289e-11
-1.0959e-12
-2.94064e-12
4.20374e-13
-1.89496e-12
1.29876e-11
-7.52839e-11
3.79683e-09
2.6196e-08
4.03299e-08
-4.17208e-09
-1.18897e-09
4.41381e-10
6.20507e-13
-2.64429e-12
1.75815e-11
-1.10859e-10
4.89822e-09
3.38335e-08
5.08845e-08
-6.45605e-09
-1.34366e-09
5.73376e-10
6.05732e-13
-2.5383e-12
1.72056e-11
-1.06949e-10
5.0225e-09
3.42929e-08
5.10659e-08
-6.61513e-09
-1.20646e-09
5.4128e-10
6.15498e-13
-2.55883e-12
1.74581e-11
-1.06417e-10
5.1976e-09
3.53465e-08
5.25697e-08
-6.61719e-09
-1.15106e-09
5.38292e-10
6.63808e-13
-2.75394e-12
1.86649e-11
-1.13773e-10
5.4876e-09
3.75015e-08
5.61296e-08
-6.61058e-09
-1.21661e-09
5.74918e-10
7.52193e-13
-3.13325e-12
2.08715e-11
-1.29832e-10
5.88288e-09
4.07382e-08
6.17876e-08
-6.5243e-09
-1.40971e-09
6.53743e-10
8.71645e-13
-3.67758e-12
2.38464e-11
-1.50519e-10
6.30252e-09
4.45129e-08
6.88767e-08
-6.10017e-09
-1.75896e-09
7.77972e-10
6.89124e-13
-3.0778e-12
2.03891e-11
-1.20382e-10
5.56382e-09
3.96375e-08
6.34708e-08
-3.42353e-09
-2.03545e-09
7.22014e-10
-1.00863e-14
2.51458e-14
2.09171e-14
1.52816e-12
8.07876e-11
5.24716e-10
9.59443e-10
1.02519e-10
-1.98402e-11
-5.57676e-12
3.93175e-14
-8.93232e-14
2.45465e-13
1.00066e-12
-2.14387e-10
-1.44924e-09
-2.33663e-09
2.00955e-11
-2.97698e-11
6.10022e-12
-2.37314e-12
1.04156e-11
-7.40129e-11
7.56642e-10
-1.34519e-08
-9.99183e-08
-1.40973e-07
2.99141e-08
3.90377e-10
-1.35857e-09
-3.4257e-12
1.43985e-11
-1.01226e-10
1.0189e-09
-1.70822e-08
-1.26831e-07
-1.74314e-07
4.16224e-08
-6.53479e-11
-1.6975e-09
-3.33021e-12
1.39149e-11
-9.92084e-11
1.0213e-09
-1.75029e-08
-1.28324e-07
-1.74375e-07
4.19918e-08
-7.06872e-10
-1.50858e-09
-3.37976e-12
1.4053e-11
-1.00431e-10
1.04222e-09
-1.8087e-08
-1.32088e-07
-1.79232e-07
4.23753e-08
-1.14647e-09
-1.43205e-09
-3.64351e-12
1.50923e-11
-1.07225e-10
1.10487e-09
-1.90356e-08
-1.39831e-07
-1.91088e-07
4.35264e-08
-1.31462e-09
-1.49218e-09
-4.13007e-12
1.70807e-11
-1.1989e-10
1.21034e-09
-2.03149e-08
-1.51471e-07
-2.10132e-07
4.51406e-08
-1.24171e-09
-1.6932e-09
-4.8028e-12
1.98733e-11
-1.36572e-10
1.33553e-09
-2.16876e-08
-1.65364e-07
-2.34772e-07
4.60205e-08
-7.99475e-10
-2.06433e-09
-3.89534e-12
1.68102e-11
-1.16141e-10
1.14428e-09
-1.94758e-08
-1.50228e-07
-2.2181e-07
3.46183e-08
9.20077e-10
-2.05171e-09
5.91661e-14
-1.19341e-13
1.84343e-13
4.15851e-12
-3.84897e-10
-2.6901e-09
-4.45493e-09
-4.442e-11
4.51382e-11
1.64372e-11
2.01934e-16
6.58168e-14
-6.56239e-13
6.13972e-12
5.67963e-10
3.84174e-09
6.07438e-09
-1.17248e-10
2.22361e-10
9.23985e-11
-1.02751e-13
-1.71318e-12
3.73811e-11
-7.61459e-10
2.55084e-08
1.91241e-07
2.9949e-07
-4.77215e-08
-5.67057e-09
1.29129e-09
-1.52086e-13
-2.65269e-12
5.33045e-11
-1.03677e-09
3.1776e-08
2.37818e-07
3.64333e-07
-6.66739e-08
-8.40026e-09
1.53718e-09
-1.77933e-13
-2.22382e-12
4.97879e-11
-1.01953e-09
3.24999e-08
2.40215e-07
3.63479e-07
-6.66845e-08
-6.4556e-09
1.19802e-09
-1.91086e-13
-2.11457e-12
4.92726e-11
-1.02878e-09
3.34882e-08
2.46654e-07
3.72575e-07
-6.64761e-08
-4.9815e-09
1.00428e-09
-1.93647e-13
-2.42458e-12
5.34412e-11
-1.09262e-09
3.507e-08
2.5989e-07
3.95656e-07
-6.71477e-08
-4.34904e-09
9.00181e-10
-1.82405e-13
-3.19741e-12
6.26379e-11
-1.21269e-09
3.71868e-08
2.7976e-07
4.33108e-07
-6.79285e-08
-4.10483e-09
8.66444e-10
-1.47204e-13
-4.45037e-12
7.60498e-11
-1.36623e-09
3.94879e-08
3.03886e-07
4.82561e-07
-6.63798e-08
-3.95598e-09
9.19355e-10
-8.91081e-14
-3.80866e-12
6.47612e-11
-1.17579e-09
3.61328e-08
2.81842e-07
4.64177e-07
-4.51957e-08
-3.67642e-09
7.1733e-10
-9.76806e-16
1.06253e-13
-8.86533e-13
5.34057e-12
9.89871e-10
6.95176e-09
1.15708e-08
3.2086e-10
3.56427e-11
3.16196e-11
-1.50128e-15
-8.91481e-14
1.56724e-12
-3.30808e-11
-1.6775e-09
-1.15092e-08
-1.79159e-08
1.11287e-09
-1.23361e-09
-6.1732e-09
-1.01365e-15
6.18779e-13
-2.71756e-11
1.00731e-09
-5.88055e-08
-4.51067e-07
-7.46939e-07
1.06049e-07
2.87992e-08
-1.75174e-08
-5.86865e-15
1.55134e-12
-4.51783e-11
1.43086e-09
-7.22128e-08
-5.52872e-07
-8.96427e-07
1.44516e-07
4.45934e-08
-1.8767e-08
-3.92685e-15
1.04533e-12
-3.91501e-11
1.37397e-09
-7.37315e-08
-5.57594e-07
-8.91715e-07
1.42174e-07
3.57565e-08
-1.47898e-08
-3.1207e-15
9.1666e-13
-3.76172e-11
1.3705e-09
-7.57737e-08
-5.71195e-07
-9.11484e-07
1.40052e-07
2.94341e-08
-1.19872e-08
-3.44778e-15
1.26706e-12
-4.26723e-11
1.4677e-09
-7.90216e-08
-5.99443e-07
-9.6462e-07
1.39901e-07
2.70667e-08
-9.64206e-09
-6.23219e-15
2.15413e-12
-5.48793e-11
1.66831e-09
-8.3359e-08
-6.41993e-07
-1.05203e-06
1.39841e-07
2.57918e-08
-7.7477e-09
-1.27442e-14
3.60692e-12
-7.35076e-11
1.93834e-09
-8.81305e-08
-6.94354e-07
-1.16966e-06
1.34344e-07
2.3099e-08
-6.40929e-09
-2.83764e-15
2.80552e-12
-5.95935e-11
1.64154e-09
-8.17099e-08
-6.5284e-07
-1.14088e-06
8.59138e-08
1.47014e-08
-4.14384e-09
-2.34566e-15
-1.54946e-13
2.3605e-12
-4.13193e-11
-2.84503e-09
-2.0342e-08
-3.38871e-08
-8.17933e-10
-4.32749e-10
-1.08534e-09
1.63843e-15
6.37074e-14
-2.87602e-12
1.23326e-10
4.59903e-09
3.27965e-08
5.29539e-08
-6.47926e-09
5.81418e-08
2.08884e-07
7.14823e-14
3.23531e-12
-2.9479e-11
-5.99629e-10
1.23722e-07
9.96027e-07
1.77546e-06
-2.26328e-07
-2.11429e-07
4.26344e-07
7.05666e-14
3.65416e-12
-2.27789e-11
-1.07425e-09
1.49411e-07
1.20063e-06
2.09299e-06
-2.88259e-07
-3.20663e-07
4.223e-07
8.06421e-14
4.0483e-12
-3.07834e-11
-9.31013e-10
1.52255e-07
1.20868e-06
2.07398e-06
-2.76359e-07
-2.56609e-07
3.17226e-07
8.63345e-14
4.18519e-12
-3.36932e-11
-8.84693e-10
1.55943e-07
1.23419e-06
2.1119e-06
-2.67203e-07
-2.11303e-07
1.97116e-07
8.40925e-14
4.08801e-12
-3.03429e-11
-9.96348e-10
1.61767e-07
1.28839e-06
2.22451e-06
-2.61473e-07
-1.95745e-07
6.4159e-08
7.29787e-14
3.70138e-12
-2.00112e-11
-1.26955e-09
1.69535e-07
1.37061e-06
2.41352e-06
-2.55757e-07
-1.84496e-07
-5.89522e-08
5.48377e-14
2.90781e-12
-2.3063e-12
-1.66648e-09
1.78212e-07
1.47344e-06
2.67391e-06
-2.39594e-07
-1.57079e-07
-1.60317e-07
5.84901e-14
2.76981e-12
-1.00644e-11
-1.31197e-09
1.6774e-07
1.40662e-06
2.65237e-06
-1.40589e-07
-9.36753e-08
-2.2027e-07
3.53457e-15
1.35567e-13
-4.80153e-12
1.65276e-10
7.55473e-09
5.6398e-08
9.82991e-08
1.63043e-09
1.32249e-08
-3.03204e-08
8.14381e-16
-4.04184e-15
3.28742e-12
-3.71614e-10
-1.18292e-08
-8.98175e-08
-1.60989e-07
4.7123e-08
1.40325e-06
-8.11711e-08
-1.53386e-13
-4.36579e-12
1.08661e-10
-1.01036e-09
-2.45499e-07
-2.13278e-06
-4.22077e-06
4.26256e-07
9.03518e-06
4.31544e-06
-1.94533e-13
-5.65321e-12
1.18913e-10
-6.07531e-10
-2.91799e-07
-2.53112e-06
-4.8786e-06
4.60595e-07
1.08135e-05
6.15154e-06
-2.04526e-13
-5.81648e-12
1.27448e-10
-8.99882e-10
-2.96826e-07
-2.54325e-06
-4.81339e-06
4.25878e-07
1.1654e-05
8.43244e-06
-2.09268e-13
-5.83751e-12
1.30862e-10
-1.02288e-09
-3.02888e-07
-2.58695e-06
-4.87809e-06
4.01488e-07
1.04941e-05
1.06894e-05
-2.11071e-13
-5.88254e-12
1.29734e-10
-9.10444e-10
-3.12394e-07
-2.68438e-06
-5.10772e-06
3.74876e-07
8.16144e-06
1.28006e-05
-2.08494e-13
-5.91522e-12
1.23199e-10
-5.5993e-10
-3.25086e-07
-2.83427e-06
-5.50473e-06
3.47341e-07
5.49076e-06
1.43394e-05
-1.96562e-13
-5.73671e-12
1.09546e-10
-1.1412e-11
-3.39475e-07
-3.02501e-06
-6.06676e-06
3.07298e-07
3.13049e-06
1.50972e-05
-1.72691e-13
-4.97483e-12
1.09508e-10
-4.11701e-10
-3.24068e-07
-2.92772e-06
-6.12081e-06
1.3092e-07
1.93289e-06
1.46746e-05
1.41489e-16
-2.84732e-14
6.8986e-12
-4.99385e-10
-1.87098e-08
-1.49416e-07
-2.89394e-07
-1.68972e-09
3.20399e-07
2.12631e-06
2.82195e-15
1.09699e-13
2.4559e-12
9.54457e-10
2.82352e-08
2.3717e-07
5.05983e-07
1.80823e-07
1.03728e-05
-3.48012e-05
3.60244e-14
1.48429e-12
-1.85733e-10
5.06928e-09
4.55228e-07
4.39644e-06
1.0096e-05
1.65849e-06
0.000110111
-0.000200245
8.10439e-14
2.83075e-12
-2.20227e-10
5.08126e-09
5.33587e-07
5.1408e-06
1.14258e-05
2.29163e-06
0.000147555
-0.000240522
7.53423e-14
2.67318e-12
-2.26262e-10
5.62468e-09
5.42275e-07
5.15638e-06
1.12219e-05
2.69407e-06
0.000150495
-0.000261032
7.04931e-14
2.5368e-12
-2.2896e-10
5.89076e-09
5.51419e-07
5.22186e-06
1.13068e-05
2.4846e-06
0.000137062
-0.000274106
7.36573e-14
2.63433e-12
-2.31275e-10
5.83113e-09
5.65435e-07
5.38117e-06
1.17471e-05
1.95762e-06
0.000115822
-0.000282022
8.47567e-14
2.96606e-12
-2.32162e-10
5.44984e-09
5.84144e-07
5.63257e-06
1.2547e-05
1.33632e-06
9.16084e-05
-0.000282914
9.80153e-14
3.36797e-12
-2.28627e-10
4.7843e-09
6.0562e-07
5.95889e-06
1.37187e-05
8.15541e-07
6.77116e-05
-0.000275628
6.09717e-14
2.32727e-12
-2.16627e-10
5.16037e-09
5.85522e-07
5.83845e-06
1.40708e-05
8.34665e-07
4.47378e-05
-0.000247089
-5.16079e-16
9.55872e-15
-2.78081e-12
1.25316e-09
4.27175e-08
3.78279e-07
8.6134e-07
1.17334e-07
4.17227e-06
-2.29048e-05
-2.0949e-14
-8.52887e-13
-2.39909e-11
-2.08129e-09
-6.14277e-08
-5.94964e-07
-1.51506e-06
6.15648e-07
3.99209e-05
0.000335089
6.59567e-14
1.97041e-12
1.73057e-10
-1.19851e-08
-7.82139e-07
-8.71299e-06
-2.3954e-05
1.86398e-05
0.000441565
0.0021526
7.89409e-14
2.02708e-12
2.22295e-10
-1.28598e-08
-9.08546e-07
-1.00684e-05
-2.64952e-05
2.45401e-05
0.000600379
0.00255975
8.35054e-14
2.07481e-12
2.20265e-10
-1.38395e-08
-9.24881e-07
-1.00905e-05
-2.5828e-05
2.30973e-05
0.000586663
0.00261956
8.80697e-14
2.14418e-12
2.19309e-10
-1.43932e-08
-9.38753e-07
-1.01739e-05
-2.59064e-05
2.059e-05
0.000510979
0.00259925
9.25799e-14
2.19329e-12
2.23766e-10
-1.452e-08
-9.58236e-07
-1.04072e-05
-2.67972e-05
1.77885e-05
0.000410368
0.00254237
9.49873e-14
2.17353e-12
2.32505e-10
-1.42455e-08
-9.83628e-07
-1.07898e-05
-2.84682e-05
1.4619e-05
0.000304101
0.00245224
9.10706e-14
2.0333e-12
2.42213e-10
-1.35925e-08
-1.01251e-06
-1.12967e-05
-3.09498e-05
1.09692e-05
0.000201922
0.00231696
9.15228e-14
2.33711e-12
2.20266e-10
-1.39565e-08
-9.88318e-07
-1.11678e-05
-3.22441e-05
5.79268e-06
9.63087e-05
0.00194275
-1.61482e-14
-6.50529e-13
-1.82204e-11
-2.62448e-09
-8.85055e-08
-9.03643e-07
-2.50372e-06
1.49545e-07
7.70937e-06
1.71391e-05
3.74742e-14
2.30014e-12
6.92822e-11
3.88493e-09
1.19674e-07
1.39807e-06
4.60993e-06
-7.29363e-06
0.000290714
-0.00118416
1.21061e-13
4.13525e-12
2.60608e-11
2.30155e-08
1.23013e-06
1.64069e-05
6.08515e-05
-3.03427e-05
0.00226185
-0.0112846
1.33921e-13
4.33595e-12
1.11942e-11
2.61164e-08
1.43004e-06
1.88482e-05
6.70173e-05
-4.96721e-05
0.0029162
-0.013459
1.57228e-13
5.33182e-12
4.09553e-11
2.81623e-08
1.46689e-06
1.89327e-05
6.49666e-05
-5.749e-05
0.00290219
-0.0132286
1.64488e-13
5.84113e-12
6.06085e-11
2.95811e-08
1.49297e-06
1.90206e-05
6.42597e-05
-5.18454e-05
0.00267824
-0.0125942
1.57904e-13
5.88691e-12
6.77164e-11
3.05235e-08
1.52306e-06
1.93005e-05
6.51284e-05
-4.02406e-05
0.00237551
-0.0118677
1.40906e-13
5.57013e-12
6.3165e-11
3.10381e-08
1.55838e-06
1.9783e-05
6.7515e-05
-2.61481e-05
0.00204246
-0.011123
1.14377e-13
4.92249e-12
4.69493e-11
3.10176e-08
1.59444e-06
2.04272e-05
7.15104e-05
-1.16192e-05
0.00169229
-0.010285
1.03974e-13
4.85193e-12
6.2008e-11
3.12009e-08
1.56442e-06
2.02609e-05
7.40716e-05
-1.65784e-06
0.00120293
-0.00800855
3.2212e-14
2.02359e-12
6.40437e-11
4.76001e-09
1.64408e-07
2.00352e-06
7.09305e-06
-8.89388e-07
6.43066e-05
0.00119047
-3.10458e-14
-3.70115e-12
-1.33612e-10
-6.00604e-09
-2.01806e-07
-2.98426e-06
-1.44944e-05
-2.92452e-05
0.000347904
-0.000279419
-2.50988e-13
-2.09139e-11
-5.37511e-10
-3.77477e-08
-1.73714e-06
-2.85282e-05
-0.00015281
-0.000228129
0.00362422
0.0356549
-3.3333e-13
-2.68727e-11
-7.1351e-10
-4.6522e-08
-2.05829e-06
-3.28669e-05
-0.000169527
-0.000312781
0.00500171
0.0432629
-3.78403e-13
-3.06492e-11
-8.44391e-10
-5.16682e-08
-2.15223e-06
-3.32981e-05
-0.000165446
-0.000315876
0.00473878
0.0410549
-4.01373e-13
-3.34044e-11
-9.5168e-10
-5.58378e-08
-2.21785e-06
-3.34813e-05
-0.000161658
-0.000282019
0.00402157
0.0375754
-4.12345e-13
-3.56345e-11
-1.04478e-09
-5.95431e-08
-2.28067e-06
-3.38121e-05
-0.000159891
-0.00023091
0.00319469
0.0341415
-4.14362e-13
-3.7467e-11
-1.12202e-09
-6.26991e-08
-2.34114e-06
-3.43275e-05
-0.000160592
-0.000169501
0.00237559
0.0310766
-3.97678e-13
-3.83602e-11
-1.16321e-09
-6.45825e-08
-2.38497e-06
-3.49177e-05
-0.000164237
-0.000101551
0.0016144
0.028031
-3.41449e-13
-3.62881e-11
-1.12506e-09
-6.39625e-08
-2.33952e-06
-3.45644e-05
-0.000168004
-3.2532e-05
0.000762435
0.0193927
-2.51359e-14
-3.47116e-12
-1.39258e-10
-7.6424e-09
-2.71156e-07
-4.04639e-06
-1.98355e-05
-6.38787e-06
0.000349351
-0.010629
9.25269e-15
4.64287e-12
2.17988e-10
7.96533e-09
2.7452e-07
5.42542e-06
3.88985e-05
-0.000185124
0.00100949
0.0192661
1.34989e-13
5.4013e-11
2.09381e-09
7.14727e-08
2.21177e-06
4.34278e-05
0.000352871
0.000139542
0.00995626
-0.0631828
2.19588e-13
7.91558e-11
3.0479e-09
9.7328e-08
2.76172e-06
5.08953e-05
0.000387402
0.000564748
0.0125919
-0.0801276
2.64437e-13
9.2265e-11
3.58466e-09
1.1141e-07
2.99614e-06
5.25346e-05
0.000377024
0.000482821
0.0122878
-0.0728968
2.88026e-13
1.03568e-10
4.0605e-09
1.23429e-07
3.17081e-06
5.3369e-05
0.000367537
0.000268155
0.0106363
-0.063088
3.00332e-13
1.14978e-10
4.52722e-09
1.34686e-07
3.32365e-06
5.40826e-05
0.000362092
-3.25119e-06
0.00845839
-0.0542455
3.00823e-13
1.26311e-10
4.95775e-09
1.44275e-07
3.44408e-06
5.467e-05
0.000361338
-0.000264241
0.0061211
-0.0470788
2.75248e-13
1.35125e-10
5.24248e-09
1.4932e-07
3.4854e-06
5.47204e-05
0.000365431
-0.000459802
0.00387556
-0.0405309
1.91924e-13
1.26236e-10
5.00699e-09
1.44586e-07
3.38394e-06
5.3599e-05
0.000372122
-0.000613704
0.0018088
-0.0205878
2.8734e-15
5.6891e-12
3.32123e-10
1.31216e-08
3.98556e-07
7.17432e-06
5.30472e-05
-4.26137e-05
-0.0013009
0.0454523
-5.84776e-14
-9.8988e-12
-3.73359e-10
-9.45769e-09
-2.58945e-07
-7.54058e-06
-0.000150442
6.00736e-05
-0.0363124
-0.103374
-1.41643e-12
-2.20856e-10
-8.0054e-09
-1.62593e-07
-2.74585e-06
-5.35378e-05
-0.00098964
0.00569325
-0.0396942
0.0561219
-2.22957e-12
-3.46009e-10
-1.19612e-08
-2.31409e-07
-3.73656e-06
-6.6955e-05
-0.00109028
0.00953692
-0.0284619
0.0786734
-2.63165e-12
-4.11471e-10
-1.4015e-08
-2.67326e-07
-4.24811e-06
-7.23993e-05
-0.0010844
0.00918052
-0.0306348
0.0659401
-3.01063e-12
-4.71582e-10
-1.5831e-08
-2.97284e-07
-4.63964e-06
-7.5505e-05
-0.00106847
0.0076213
-0.0389924
0.0505366
-3.428e-12
-5.3359e-10
-1.75728e-08
-3.23617e-07
-4.95428e-06
-7.74086e-05
-0.00105346
0.00541919
-0.0497748
0.0379048
-3.87659e-12
-5.93703e-10
-1.9054e-08
-3.42431e-07
-5.14234e-06
-7.78517e-05
-0.00103663
0.00280787
-0.0625913
0.0293128
-4.29543e-12
-6.38425e-10
-1.9791e-08
-3.44944e-07
-5.08133e-06
-7.55734e-05
-0.00101025
-6.39678e-06
-0.0767994
0.0221961
-4.08411e-12
-6.02007e-10
-1.86954e-08
-3.25412e-07
-4.79657e-06
-7.15138e-05
-0.000976406
-0.00394524
-0.0948479
-0.00694131
-1.135e-13
-2.45358e-11
-1.14661e-09
-2.83216e-08
-5.55584e-07
-1.03322e-05
-0.000154639
-0.000492366
-0.051654
-0.142223
-4.22085e-14
-4.52872e-12
2.19333e-11
4.46866e-09
1.69745e-07
7.2647e-06
0.000385654
0.0205752
0.288291
0.602686
1.70204e-12
3.41653e-10
1.40007e-08
2.83928e-07
4.71135e-06
8.06952e-05
0.00284585
0.16133
0.646186
0.657746
3.13162e-12
5.42357e-10
2.00711e-08
3.90506e-07
6.4668e-06
0.000108855
0.00349506
0.183401
0.718101
0.649766
3.89972e-12
6.40716e-10
2.28303e-08
4.40395e-07
7.34489e-06
0.00012158
0.00352314
0.176021
0.707493
0.634776
4.64055e-12
7.27624e-10
2.50059e-08
4.77126e-07
7.98608e-06
0.000129012
0.00335427
0.164593
0.67983
0.620043
5.39793e-12
8.07293e-10
2.66613e-08
5.01102e-07
8.40908e-06
0.000132968
0.00310242
0.152267
0.645569
0.607274
6.09462e-12
8.66486e-10
2.73219e-08
5.02969e-07
8.46724e-06
0.000132397
0.00280225
0.139678
0.607366
0.598514
6.56873e-12
8.80058e-10
2.61696e-08
4.67224e-07
7.89819e-06
0.000124085
0.00245304
0.127118
0.563502
0.593655
6.1425e-12
8.00785e-10
2.33212e-08
4.11964e-07
7.07759e-06
0.000113659
0.00206025
0.105821
0.47162
0.581856
1.46646e-13
3.4213e-11
1.76657e-09
4.57769e-08
9.42675e-07
1.67956e-05
0.000312189
0.0118063
0.181296
0.480278
-6.74839e-14
-1.93295e-11
-1.20274e-09
-3.00689e-08
-3.60768e-07
1.22202e-05
0.00100182
0.0401544
0.463214
1.01045
-6.41578e-12
-8.66897e-10
-2.87192e-08
-5.48857e-07
-8.7571e-06
-3.11406e-05
0.00622144
0.246357
0.911341
0.976813
-9.02023e-12
-1.15363e-09
-3.60861e-08
-6.77187e-07
-1.10094e-05
-5.39067e-05
0.0068544
0.272593
0.989305
0.959356
-9.8443e-12
-1.2413e-09
-3.81359e-08
-7.15844e-07
-1.194e-05
-7.64119e-05
0.0062662
0.262052
0.978231
0.953117
-1.03893e-11
-1.28397e-09
-3.85437e-08
-7.22274e-07
-1.24156e-05
-9.99723e-05
0.00542174
0.248472
0.956099
0.947808
-1.07404e-11
-1.28826e-09
-3.73891e-08
-6.95843e-07
-1.23561e-05
-0.000119823
0.004506
0.235105
0.932696
0.942865
-1.07586e-11
-1.235e-09
-3.40459e-08
-6.22974e-07
-1.14546e-05
-0.000129146
0.00361725
0.222322
0.909708
0.939224
-1.02096e-11
-1.09368e-09
-2.75838e-08
-4.84433e-07
-9.28959e-06
-0.000119001
0.00287112
0.210292
0.884264
0.937398
-8.67774e-12
-8.84788e-10
-2.06911e-08
-3.471e-07
-7.10783e-06
-0.00010919
0.00186115
0.184346
0.795394
0.940343
-3.69832e-13
-6.85633e-11
-3.00352e-09
-7.24854e-08
-1.49512e-06
-2.1099e-05
0.000195983
0.0247068
0.364561
0.931826
4.49798e-13
8.15731e-11
3.92067e-09
1.21039e-07
3.81538e-06
0.000122576
0.00327371
0.068316
0.590721
1.14711
8.05059e-12
9.19613e-10
2.92411e-08
7.41674e-07
2.3025e-05
0.000775221
0.0225975
0.34768
1.05038
1.06354
9.96833e-12
1.08926e-09
3.30555e-08
8.33211e-07
2.60959e-05
0.000881869
0.0254488
0.384235
1.1253
1.03991
1.00146e-11
1.08248e-09
3.22581e-08
8.15095e-07
2.58691e-05
0.000879599
0.0250706
0.377715
1.11695
1.03596
9.44593e-12
9.94465e-10
2.86578e-08
7.30621e-07
2.39635e-05
0.000836498
0.0241087
0.368772
1.1006
1.03396
8.40594e-12
8.38102e-10
2.26018e-08
5.88857e-07
2.06788e-05
0.000763245
0.0228403
0.360831
1.08409
1.03273
6.81636e-12
6.03928e-10
1.38226e-08
3.84591e-07
1.59051e-05
0.000657214
0.0211928
0.353346
1.06795
1.03334
4.51066e-12
2.72899e-10
1.78044e-09
1.07095e-07
9.40657e-06
0.000512126
0.0190163
0.345116
1.04939
1.03687
2.19082e-12
-1.72488e-11
-7.93445e-09
-1.18861e-07
3.78221e-06
0.000370707
0.0163472
0.321
0.971239
1.04925
3.58202e-13
5.31743e-11
1.90193e-09
5.35642e-08
2.05755e-06
8.51612e-05
0.00273652