/*--------------------------------*- C++ -*----------------------------------*\
| =========                 |                                                 |
| \\      /  F ield         | OpenFOAM: The Open Source CFD Toolbox           |
|  \\    /   O peration     | Version:  1.7.x                                 |
|   \\  /    A nd           | Web:      www.OpenFOAM.com                      |
|    \\/     M anipulation  |                                                 |
\*---------------------------------------------------------------------------*/
FoamFile
{
    version     2.0;
    format      ascii;
    class       volScalarField;
    location    "0.2";
    object      conc;
}
// * * * * * * * * * * * * * * * * * * * * * * * * * * * * * * * * * * * * * //

dimensions      [0 -3 0 0 1 0 0];

internalField   nonuniform List<scalar> 
8000
(
-2.94694e-23
-1.01183e-21
1.11965e-19
1.62778e-18
5.40874e-17
4.08804e-16
8.22763e-16
-3.4558e-17
-1.96226e-16
8.16125e-18
1.35343e-21
3.32027e-19
-8.53759e-18
-2.40458e-16
-1.34888e-14
-1.39784e-13
-4.5586e-13
-2.64165e-13
4.64339e-14
-1.12606e-15
6.7139e-22
4.31884e-19
-1.06849e-17
-2.92438e-16
-1.67337e-14
-1.72855e-13
-5.58517e-13
-3.16277e-13
5.64181e-14
-1.39498e-15
6.18461e-21
3.58663e-19
-9.96011e-18
-2.93122e-16
-1.64323e-14
-1.69741e-13
-5.48691e-13
-3.09819e-13
5.48433e-14
-1.33343e-15
1.31171e-20
3.00191e-19
-9.24141e-18
-2.89479e-16
-1.63717e-14
-1.70301e-13
-5.53449e-13
-3.14949e-13
5.54573e-14
-1.31707e-15
2.18085e-20
2.52674e-19
-8.56121e-18
-2.82286e-16
-1.66738e-14
-1.75924e-13
-5.7733e-13
-3.33969e-13
5.86484e-14
-1.36979e-15
3.30221e-20
2.06703e-19
-7.86398e-18
-2.7008e-16
-1.72815e-14
-1.86133e-13
-6.18921e-13
-3.65749e-13
6.41862e-14
-1.48354e-15
4.75042e-20
1.49622e-19
-7.05879e-18
-2.49745e-16
-1.79726e-14
-1.98666e-13
-6.71349e-13
-4.07101e-13
7.14787e-14
-1.62074e-15
5.58092e-20
-2.51607e-20
-4.11375e-18
-1.89508e-16
-1.49442e-14
-1.70458e-13
-5.91427e-13
-3.74342e-13
6.45056e-14
-1.36057e-15
-2.86376e-22
3.65313e-21
3.27017e-19
6.89682e-18
1.55179e-16
1.10926e-15
2.61169e-15
1.03644e-15
-4.44314e-16
1.7171e-17
-1.48687e-21
5.25173e-20
-1.16842e-18
-7.80065e-18
-5.33446e-16
-4.35484e-15
-9.01664e-15
2.8835e-16
2.25053e-15
-1.05589e-16
2.54514e-19
-8.27236e-18
1.65019e-16
3.85497e-15
1.91364e-13
1.80801e-12
5.40544e-12
2.76732e-12
-5.56716e-13
1.63183e-14
3.59379e-19
-1.07532e-17
2.07579e-16
4.71297e-15
2.39164e-13
2.25421e-12
6.6774e-12
3.33163e-12
-6.80559e-13
2.06291e-14
2.80205e-19
-9.5707e-18
2.00769e-16
4.81557e-15
2.36987e-13
2.22658e-12
6.58649e-12
3.27376e-12
-6.63602e-13
1.99883e-14
1.99649e-19
-8.92197e-18
1.96615e-16
4.88197e-15
2.39014e-13
2.25216e-12
6.68366e-12
3.34792e-12
-6.74381e-13
2.01349e-14
1.16869e-19
-8.79209e-18
1.9587e-16
4.92161e-15
2.47161e-13
2.35099e-12
7.02886e-12
3.58102e-12
-7.18338e-13
2.13669e-14
2.21548e-20
-9.08328e-18
1.97817e-16
4.90943e-15
2.60797e-13
2.51868e-12
7.61096e-12
3.96567e-12
-7.93952e-13
2.36276e-14
-9.67283e-20
-9.68185e-18
2.00842e-16
4.78992e-15
2.76764e-13
2.72601e-12
8.34898e-12
4.47053e-12
-8.94817e-13
2.65347e-14
-2.75485e-19
-6.74362e-18
1.55849e-16
3.95929e-15
2.36139e-13
2.37101e-12
7.41761e-12
4.15316e-12
-8.14813e-13
2.30154e-14
1.51462e-21
1.10436e-20
-3.256e-18
-5.11283e-17
-1.3183e-15
-9.40707e-15
-2.06696e-14
-5.91574e-15
4.43997e-15
-1.95451e-16
4.82266e-20
-1.0633e-18
9.87004e-18
-5.3971e-17
3.55282e-15
3.07617e-14
5.43511e-14
-2.05525e-14
-1.84661e-14
1.05645e-15
-6.74662e-18
1.37054e-16
-2.51853e-15
-4.99092e-14
-2.25674e-12
-1.96161e-11
-5.37651e-11
-2.36623e-11
5.2162e-12
-1.75847e-13
-9.43751e-18
1.7973e-16
-3.20055e-15
-6.14641e-14
-2.85106e-12
-2.47424e-11
-6.71776e-11
-2.8677e-11
6.42196e-12
-2.24932e-13
-8.50808e-18
1.64207e-16
-3.15608e-15
-6.364e-14
-2.84522e-12
-2.45618e-11
-6.65073e-11
-2.82527e-11
6.28031e-12
-2.19053e-13
-7.82242e-18
1.58787e-16
-3.16821e-15
-6.55376e-14
-2.89297e-12
-2.49861e-11
-6.77835e-11
-2.90308e-11
6.4083e-12
-2.22516e-13
-7.44827e-18
1.64021e-16
-3.25219e-15
-6.72752e-14
-3.02085e-12
-2.62713e-11
-7.17072e-11
-3.12808e-11
6.86692e-12
-2.38497e-13
-7.29525e-18
1.79281e-16
-3.39979e-15
-6.85041e-14
-3.22289e-12
-2.83845e-11
-7.82137e-11
-3.4974e-11
7.65192e-12
-2.66874e-13
-7.19004e-18
2.03916e-16
-3.58455e-15
-6.84209e-14
-3.45898e-12
-3.09852e-11
-8.64402e-11
-3.98384e-11
8.70536e-12
-3.04293e-13
-4.03122e-18
1.6253e-16
-2.959e-15
-5.84227e-14
-2.97908e-12
-2.7045e-11
-7.68901e-11
-3.72382e-11
7.97023e-12
-2.67113e-13
3.13344e-20
-9.06154e-19
2.74901e-17
2.08475e-16
7.94094e-15
5.50371e-14
9.66713e-14
-4.82412e-15
-3.34276e-14
1.82918e-15
-1.01254e-18
1.74729e-17
-6.64126e-17
2.00614e-15
-7.82813e-15
-9.77566e-14
-1.28744e-14
3.83117e-13
1.31543e-13
-9.90165e-15
1.3377e-16
-2.03033e-15
3.24253e-14
5.66059e-13
2.39054e-11
1.92791e-10
4.86054e-10
1.8089e-10
-4.56459e-11
1.83009e-12
1.90712e-16
-2.71334e-15
4.17443e-14
7.04625e-13
3.05972e-11
2.46436e-10
6.14974e-10
2.20419e-10
-5.68954e-11
2.3899e-12
1.79602e-16
-2.51402e-15
4.16319e-14
7.38498e-13
3.07385e-11
2.45898e-10
6.11357e-10
2.17779e-10
-5.58593e-11
2.33815e-12
1.74585e-16
-2.47201e-15
4.23414e-14
7.68833e-13
3.14343e-11
2.51209e-10
6.25206e-10
2.2476e-10
-5.71894e-11
2.38634e-12
1.78143e-16
-2.60728e-15
4.41401e-14
7.97318e-13
3.30224e-11
2.65369e-10
6.64049e-10
2.43788e-10
-6.15632e-11
2.57361e-12
1.89491e-16
-2.9185e-15
4.6942e-14
8.19565e-13
3.54473e-11
2.8814e-10
7.27567e-10
2.74858e-10
-6.90133e-11
2.9026e-12
2.05495e-16
-3.4e-15
5.03465e-14
8.24989e-13
3.82242e-11
3.15721e-10
8.0693e-10
3.15715e-10
-7.89717e-11
3.3362e-12
1.46872e-16
-2.79026e-15
4.23591e-14
7.11592e-13
3.29181e-11
2.7483e-10
7.15584e-10
2.96622e-10
-7.2185e-11
2.91008e-12
-1.09291e-18
1.96115e-17
-1.92046e-16
1.15974e-15
-1.70025e-14
-9.5777e-14
1.83214e-13
5.34488e-13
2.21281e-13
-1.6511e-14
1.63437e-17
-2.28637e-16
2.27188e-16
-3.24951e-14
-1.77432e-13
-7.86452e-13
-3.68699e-12
-4.56347e-12
-7.70209e-13
8.22838e-14
-1.98328e-15
2.46122e-14
-3.75404e-13
-5.54812e-12
-2.28667e-10
-1.73417e-09
-4.03524e-09
-1.22133e-09
3.38631e-10
-1.56609e-11
-2.87294e-15
3.34774e-14
-4.90311e-13
-6.95386e-12
-2.96469e-10
-2.2469e-09
-5.17165e-09
-1.49068e-09
4.25712e-10
-2.07311e-11
-2.76246e-15
3.13057e-14
-4.93573e-13
-7.37869e-12
-2.99817e-10
-2.25424e-09
-5.16423e-09
-1.47637e-09
4.19188e-10
-2.03424e-11
-2.74942e-15
3.10628e-14
-5.06354e-13
-7.75271e-12
-3.08033e-10
-2.31123e-09
-5.2968e-09
-1.53056e-09
4.30066e-10
-2.08249e-11
-2.88202e-15
3.31197e-14
-5.32535e-13
-8.0896e-12
-3.2483e-10
-2.44893e-09
-5.64127e-09
-1.67161e-09
4.6437e-10
-2.25584e-11
-3.15566e-15
3.752e-14
-5.71158e-13
-8.34001e-12
-3.49682e-10
-2.66548e-09
-6.19619e-09
-1.90087e-09
5.2283e-10
-2.55951e-11
-3.52131e-15
4.41748e-14
-6.16647e-13
-8.39029e-12
-3.77361e-10
-2.92224e-09
-6.87886e-09
-2.20243e-09
6.01005e-10
-2.96087e-11
-2.64368e-15
3.64843e-14
-5.20609e-13
-7.27925e-12
-3.23808e-10
-2.53024e-09
-6.06905e-09
-2.08527e-09
5.49949e-10
-2.5757e-11
2.06978e-17
-2.89319e-16
8.92631e-16
-4.01043e-14
-3.8019e-13
-2.65373e-12
-9.61179e-12
-7.56228e-12
-1.15965e-12
1.33703e-13
-2.64579e-16
2.85053e-15
8.57382e-16
3.99082e-13
3.81459e-12
2.15026e-11
6.14356e-11
4.2818e-11
4.24621e-12
-7.34551e-13
2.92899e-14
-2.83899e-13
3.64889e-12
4.58762e-11
1.96545e-09
1.40978e-08
3.01668e-08
6.97122e-09
-2.38878e-09
1.42853e-10
4.32905e-14
-3.92339e-13
4.81079e-12
5.74599e-11
2.5712e-09
1.84373e-08
3.89555e-08
8.388e-09
-3.01989e-09
1.92821e-10
4.22081e-14
-3.69556e-13
4.85322e-12
6.1852e-11
2.6144e-09
1.85794e-08
3.90336e-08
8.30649e-09
-2.97986e-09
1.89948e-10
4.25528e-14
-3.68851e-13
4.99744e-12
6.55799e-11
2.69552e-09
1.91013e-08
4.01264e-08
8.6596e-09
-3.05999e-09
1.94857e-10
4.521e-14
-3.95715e-13
5.28749e-12
6.8642e-11
2.84908e-09
2.02777e-08
4.28135e-08
9.55163e-09
-3.30951e-09
2.11642e-10
5.01691e-14
-4.51093e-13
5.71576e-12
7.05504e-11
3.07038e-09
2.20946e-08
4.70904e-08
1.10006e-08
-3.73654e-09
2.41007e-10
5.65872e-14
-5.33459e-13
6.225e-12
7.03625e-11
3.31113e-09
2.42142e-08
5.23021e-08
1.29314e-08
-4.31033e-09
2.79589e-10
4.2893e-14
-4.40103e-13
5.27417e-12
6.15414e-11
2.8359e-09
2.09105e-08
4.61043e-08
1.25317e-08
-3.96075e-09
2.4093e-10
-3.62456e-16
3.85253e-15
-2.55066e-16
5.88252e-13
7.92621e-12
5.18252e-11
1.40193e-10
7.48665e-11
5.01649e-12
-1.18077e-12
3.57707e-15
-3.0451e-14
-3.6562e-14
-4.14996e-12
-5.231e-11
-3.08777e-10
-7.32028e-10
-3.44798e-10
-1.84447e-11
5.19619e-12
-3.4017e-13
2.7931e-12
-3.31829e-11
-3.20736e-10
-1.51363e-08
-1.04355e-07
-2.06593e-07
-3.30209e-08
1.38688e-08
-1.02881e-09
-5.08404e-13
3.91338e-12
-4.41946e-11
-3.98012e-10
-1.98779e-08
-1.3705e-07
-2.67533e-07
-3.82743e-08
1.74988e-08
-1.39735e-09
-4.9901e-13
3.70721e-12
-4.46938e-11
-4.35694e-10
-2.02877e-08
-1.38504e-07
-2.68585e-07
-3.77351e-08
1.7225e-08
-1.37387e-09
-5.06466e-13
3.71339e-12
-4.61392e-11
-4.66513e-10
-2.09632e-08
-1.42621e-07
-2.76434e-07
-3.96672e-08
1.76419e-08
-1.40789e-09
-5.42272e-13
3.99679e-12
-4.89959e-11
-4.89e-10
-2.21836e-08
-1.5155e-07
-2.95259e-07
-4.45171e-08
1.90746e-08
-1.53093e-09
-6.06732e-13
4.56959e-12
-5.32028e-11
-4.98964e-10
-2.39115e-08
-1.65198e-07
-3.25091e-07
-5.2466e-08
2.15924e-08
-1.75006e-09
-6.89425e-13
5.40998e-12
-5.81903e-11
-4.90321e-10
-2.57627e-08
-1.80976e-07
-3.61337e-07
-6.33444e-08
2.50496e-08
-2.04351e-09
-5.25715e-13
4.44554e-12
-4.92596e-11
-4.34689e-10
-2.2105e-08
-1.56513e-07
-3.19511e-07
-6.41545e-08
2.33113e-08
-1.76569e-09
5.12967e-15
-4.2912e-14
-6.75378e-14
-6.53362e-12
-1.04443e-10
-6.65621e-10
-1.55664e-09
-6.14745e-10
-8.82111e-12
8.40501e-12
-4.99696e-14
2.86624e-13
4.20437e-13
3.68474e-11
6.12516e-10
3.71371e-09
8.03514e-09
2.57546e-09
-2.50569e-11
-4.48149e-11
4.21541e-12
-2.6482e-11
2.53273e-10
1.47763e-09
1.05951e-07
7.11859e-07
1.29301e-06
1.01364e-07
-7.74916e-08
8.68679e-09
6.32684e-12
-3.7186e-11
3.38223e-10
1.7216e-09
1.38918e-07
9.3394e-07
1.66743e-06
9.90399e-08
-9.63459e-08
1.18158e-08
6.21907e-12
-3.53484e-11
3.38821e-10
1.9764e-09
1.42126e-07
9.45494e-07
1.67491e-06
9.48287e-08
-9.41242e-08
1.15769e-08
6.32646e-12
-3.54814e-11
3.48371e-10
2.16811e-09
1.47029e-07
9.74354e-07
1.72459e-06
1.02905e-07
-9.58005e-08
1.18237e-08
6.80201e-12
-3.82433e-11
3.71126e-10
2.26278e-09
1.55618e-07
1.03559e-06
1.84289e-06
1.23625e-07
-1.03342e-07
1.28336e-08
7.65504e-12
-4.37705e-11
4.07014e-10
2.23074e-09
1.67634e-07
1.12866e-06
2.03046e-06
1.58496e-07
-1.1723e-07
1.46744e-08
8.75667e-12
-5.18407e-11
4.51888e-10
2.05963e-09
1.80393e-07
1.23591e-06
2.25944e-06
2.09538e-07
-1.37106e-07
1.71923e-08
6.72323e-12
-4.27912e-11
3.85061e-10
1.93514e-09
1.55737e-07
1.07517e-06
2.01723e-06
2.43695e-07
-1.31337e-07
1.4962e-08
-7.35985e-14
4.09141e-13
9.02008e-13
5.88228e-11
1.16597e-09
7.38924e-09
1.59351e-08
4.66644e-09
-2.72312e-10
-7.40122e-11
5.81941e-13
-2.56872e-12
-2.46893e-12
-2.62468e-10
-5.75447e-09
-3.52703e-08
-6.83921e-08
-1.40115e-08
-2.64822e-10
3.58214e-10
-4.0345e-11
2.269e-10
-1.88456e-09
-2.432e-09
-6.71346e-07
-4.49824e-06
-7.56782e-06
1.24224e-08
3.29973e-07
-5.33523e-08
-6.06522e-11
3.19071e-10
-2.53777e-09
-1.53635e-09
-8.75097e-07
-5.86862e-06
-9.68169e-06
2.16e-07
4.0127e-07
-7.19667e-08
-5.95934e-11
3.0508e-10
-2.5214e-09
-2.95671e-09
-8.96801e-07
-5.94795e-06
-9.72791e-06
2.4287e-07
3.84758e-07
-6.95598e-08
-6.07149e-11
3.07099e-10
-2.5816e-09
-3.88309e-09
-9.28258e-07
-6.1318e-06
-1.00188e-05
2.17071e-07
3.85596e-07
-7.03696e-08
-6.54395e-11
3.30869e-10
-2.75562e-09
-3.90647e-09
-9.81762e-07
-6.51352e-06
-1.07041e-05
1.503e-07
4.13213e-07
-7.60006e-08
-7.38706e-11
3.77521e-10
-3.04538e-09
-2.83975e-09
-1.05566e-06
-7.09006e-06
-1.17901e-05
3.1768e-08
4.69942e-07
-8.69088e-08
-8.49306e-11
4.45008e-10
-3.42018e-09
-8.67265e-10
-1.13378e-06
-7.75544e-06
-1.3126e-05
-1.66905e-07
5.57172e-07
-1.02674e-07
-6.56391e-11
3.68386e-10
-2.91418e-09
-2.06664e-09
-9.88084e-07
-6.81268e-06
-1.18714e-05
-5.10797e-07
5.59385e-07
-9.08514e-08
8.75873e-13
-3.70745e-12
-6.73463e-12
-4.12187e-10
-1.06783e-08
-6.78066e-08
-1.32835e-07
-2.59174e-08
1.52156e-09
6.31656e-10
-6.69973e-12
1.79671e-11
-3.81183e-12
1.11036e-09
4.41124e-08
2.7722e-07
5.00456e-07
5.0289e-08
-1.0959e-09
-2.94064e-09
4.20374e-10
-1.89496e-09
1.29876e-08
-7.52839e-08
3.79683e-06
2.6196e-05
4.03299e-05
-4.17208e-06
-1.18897e-06
4.41381e-07
6.20507e-10
-2.64429e-09
1.75815e-08
-1.10859e-07
4.89822e-06
3.38335e-05
5.08845e-05
-6.45605e-06
-1.34366e-06
5.73376e-07
6.05732e-10
-2.5383e-09
1.72056e-08
-1.06949e-07
5.0225e-06
3.42929e-05
5.10659e-05
-6.61513e-06
-1.20646e-06
5.4128e-07
6.15498e-10
-2.55883e-09
1.74581e-08
-1.06417e-07
5.1976e-06
3.53465e-05
5.25697e-05
-6.61719e-06
-1.15106e-06
5.38292e-07
6.63808e-10
-2.75394e-09
1.86649e-08
-1.13773e-07
5.4876e-06
3.75015e-05
5.61296e-05
-6.61058e-06
-1.21661e-06
5.74918e-07
7.52193e-10
-3.13325e-09
2.08715e-08
-1.29832e-07
5.88288e-06
4.07382e-05
6.17876e-05
-6.5243e-06
-1.40971e-06
6.53743e-07
8.71645e-10
-3.67758e-09
2.38464e-08
-1.50519e-07
6.30252e-06
4.45129e-05
6.88767e-05
-6.10017e-06
-1.75896e-06
7.77972e-07
6.89124e-10
-3.0778e-09
2.03891e-08
-1.20382e-07
5.56382e-06
3.96375e-05
6.34708e-05
-3.42353e-06
-2.03545e-06
7.22014e-07
-1.00863e-11
2.51458e-11
2.09171e-11
1.52816e-09
8.07876e-08
5.24716e-07
9.59443e-07
1.02519e-07
-1.98402e-08
-5.57676e-09
3.93175e-11
-8.93232e-11
2.45465e-10
1.00066e-09
-2.14387e-07
-1.44924e-06
-2.33663e-06
2.00955e-08
-2.97698e-08
6.10022e-09
-2.37314e-09
1.04156e-08
-7.40129e-08
7.56642e-07
-1.34519e-05
-9.99183e-05
-0.000140973
2.99141e-05
3.90377e-07
-1.35857e-06
-3.4257e-09
1.43985e-08
-1.01226e-07
1.0189e-06
-1.70822e-05
-0.000126831
-0.000174314
4.16224e-05
-6.53479e-08
-1.6975e-06
-3.33021e-09
1.39149e-08
-9.92084e-08
1.0213e-06
-1.75029e-05
-0.000128324
-0.000174375
4.19918e-05
-7.06872e-07
-1.50858e-06
-3.37976e-09
1.4053e-08
-1.00431e-07
1.04222e-06
-1.8087e-05
-0.000132088
-0.000179232
4.23753e-05
-1.14647e-06
-1.43205e-06
-3.64351e-09
1.50923e-08
-1.07225e-07
1.10487e-06
-1.90356e-05
-0.000139831
-0.000191088
4.35264e-05
-1.31462e-06
-1.49218e-06
-4.13007e-09
1.70807e-08
-1.1989e-07
1.21034e-06
-2.03149e-05
-0.000151471
-0.000210132
4.51406e-05
-1.24171e-06
-1.6932e-06
-4.8028e-09
1.98733e-08
-1.36572e-07
1.33553e-06
-2.16876e-05
-0.000165364
-0.000234772
4.60205e-05
-7.99475e-07
-2.06433e-06
-3.89534e-09
1.68102e-08
-1.16141e-07
1.14428e-06
-1.94758e-05
-0.000150228
-0.00022181
3.46183e-05
9.20077e-07
-2.05171e-06
5.91661e-11
-1.19341e-10
1.84343e-10
4.15851e-09
-3.84897e-07
-2.6901e-06
-4.45493e-06
-4.442e-08
4.51382e-08
1.64372e-08
2.01934e-13
6.58168e-11
-6.56239e-10
6.13972e-09
5.67963e-07
3.84174e-06
6.07438e-06
-1.17248e-07
2.22361e-07
9.23985e-08
-1.02751e-10
-1.71318e-09
3.73811e-08
-7.61459e-07
2.55084e-05
0.000191241
0.00029949
-4.77215e-05
-5.67057e-06
1.29129e-06
-1.52086e-10
-2.65269e-09
5.33045e-08
-1.03677e-06
3.1776e-05
0.000237818
0.000364333
-6.66739e-05
-8.40026e-06
1.53718e-06
-1.77933e-10
-2.22382e-09
4.97879e-08
-1.01953e-06
3.24999e-05
0.000240215
0.000363479
-6.66845e-05
-6.4556e-06
1.19802e-06
-1.91086e-10
-2.11457e-09
4.92726e-08
-1.02878e-06
3.34882e-05
0.000246654
0.000372575
-6.64761e-05
-4.9815e-06
1.00428e-06
-1.93647e-10
-2.42458e-09
5.34412e-08
-1.09262e-06
3.507e-05
0.00025989
0.000395656
-6.71477e-05
-4.34904e-06
9.00181e-07
-1.82405e-10
-3.19741e-09
6.26379e-08
-1.21269e-06
3.71868e-05
0.00027976
0.000433108
-6.79285e-05
-4.10483e-06
8.66444e-07
-1.47204e-10
-4.45037e-09
7.60498e-08
-1.36623e-06
3.94879e-05
0.000303886
0.000482561
-6.63798e-05
-3.95598e-06
9.19355e-07
-8.91081e-11
-3.80866e-09
6.47612e-08
-1.17579e-06
3.61328e-05
0.000281842
0.000464177
-4.51957e-05
-3.67642e-06
7.1733e-07
-9.76806e-13
1.06253e-10
-8.86533e-10
5.34057e-09
9.89871e-07
6.95176e-06
1.15708e-05
3.2086e-07
3.56427e-08
3.16196e-08
-1.50128e-12
-8.91481e-11
1.56724e-09
-3.30808e-08
-1.6775e-06
-1.15092e-05
-1.79159e-05
1.11287e-06
-1.23361e-06
-6.1732e-06
-1.01365e-12
6.18779e-10
-2.71756e-08
1.00731e-06
-5.88055e-05
-0.000451067
-0.000746939
0.000106049
2.87992e-05
-1.75174e-05
-5.86865e-12
1.55134e-09
-4.51783e-08
1.43086e-06
-7.22128e-05
-0.000552872
-0.000896427
0.000144516
4.45934e-05
-1.8767e-05
-3.92685e-12
1.04533e-09
-3.91501e-08
1.37397e-06
-7.37315e-05
-0.000557594
-0.000891715
0.000142174
3.57565e-05
-1.47898e-05
-3.1207e-12
9.1666e-10
-3.76172e-08
1.3705e-06
-7.57737e-05
-0.000571195
-0.000911484
0.000140052
2.94341e-05
-1.19872e-05
-3.44778e-12
1.26706e-09
-4.26723e-08
1.4677e-06
-7.90216e-05
-0.000599443
-0.00096462
0.000139901
2.70667e-05
-9.64206e-06
-6.23219e-12
2.15413e-09
-5.48793e-08
1.66831e-06
-8.3359e-05
-0.000641993
-0.00105203
0.000139841
2.57918e-05
-7.7477e-06
-1.27442e-11
3.60692e-09
-7.35076e-08
1.93834e-06
-8.81305e-05
-0.000694354
-0.00116966
0.000134344
2.3099e-05
-6.40929e-06
-2.83764e-12
2.80552e-09
-5.95935e-08
1.64154e-06
-8.17099e-05
-0.00065284
-0.00114088
8.59138e-05
1.47014e-05
-4.14384e-06
-2.34566e-12
-1.54946e-10
2.3605e-09
-4.13193e-08
-2.84503e-06
-2.0342e-05
-3.38871e-05
-8.17933e-07
-4.32749e-07
-1.08534e-06
1.63843e-12
6.37074e-11
-2.87602e-09
1.23326e-07
4.59903e-06
3.27965e-05
5.29539e-05
-6.47926e-06
5.81418e-05
0.000208884
7.14823e-11
3.23531e-09
-2.9479e-08
-5.99629e-07
0.000123722
0.000996027
0.00177546
-0.000226328
-0.000211429
0.000426344
7.05666e-11
3.65416e-09
-2.27789e-08
-1.07425e-06
0.000149411
0.00120063
0.00209299
-0.000288259
-0.000320663
0.0004223
8.06421e-11
4.0483e-09
-3.07834e-08
-9.31013e-07
0.000152255
0.00120868
0.00207398
-0.000276359
-0.000256609
0.000317226
8.63345e-11
4.18519e-09
-3.36932e-08
-8.84693e-07
0.000155943
0.00123419
0.0021119
-0.000267203
-0.000211303
0.000197116
8.40925e-11
4.08801e-09
-3.03429e-08
-9.96348e-07
0.000161767
0.00128839
0.00222451
-0.000261473
-0.000195745
6.4159e-05
7.29787e-11
3.70138e-09
-2.00112e-08
-1.26955e-06
0.000169535
0.00137061
0.00241352
-0.000255757
-0.000184496
-5.89522e-05
5.48377e-11
2.90781e-09
-2.3063e-09
-1.66648e-06
0.000178212
0.00147344
0.00267391
-0.000239594
-0.000157079
-0.000160317
5.84901e-11
2.76981e-09
-1.00644e-08
-1.31197e-06
0.00016774
0.00140662
0.00265237
-0.000140589
-9.36753e-05
-0.00022027
3.53457e-12
1.35567e-10
-4.80153e-09
1.65276e-07
7.55473e-06
5.6398e-05
9.82991e-05
1.63043e-06
1.32249e-05
-3.03204e-05
8.14381e-13
-4.04184e-12
3.28742e-09
-3.71614e-07
-1.18292e-05
-8.98175e-05
-0.000160989
4.7123e-05
0.00140325
-8.11711e-05
-1.53386e-10
-4.36579e-09
1.08661e-07
-1.01036e-06
-0.000245499
-0.00213278
-0.00422077
0.000426256
0.00903518
0.00431544
-1.94533e-10
-5.65321e-09
1.18913e-07
-6.07531e-07
-0.000291799
-0.00253112
-0.0048786
0.000460595
0.0108135
0.00615154
-2.04526e-10
-5.81648e-09
1.27448e-07
-8.99882e-07
-0.000296826
-0.00254325
-0.00481339
0.000425878
0.011654
0.00843244
-2.09268e-10
-5.83751e-09
1.30862e-07
-1.02288e-06
-0.000302888
-0.00258695
-0.00487809
0.000401488
0.0104941
0.0106894
-2.11071e-10
-5.88254e-09
1.29734e-07
-9.10444e-07
-0.000312394
-0.00268438
-0.00510772
0.000374876
0.00816144
0.0128006
-2.08494e-10
-5.91522e-09
1.23199e-07
-5.5993e-07
-0.000325086
-0.00283427
-0.00550473
0.000347341
0.00549076
0.0143394
-1.96562e-10
-5.73671e-09
1.09546e-07
-1.1412e-08
-0.000339475
-0.00302501
-0.00606676
0.000307298
0.00313049
0.0150972
-1.72691e-10
-4.97483e-09
1.09508e-07
-4.11701e-07
-0.000324068
-0.00292772
-0.00612081
0.00013092
0.00193289
0.0146746
1.41489e-13
-2.84732e-11
6.8986e-09
-4.99385e-07
-1.87098e-05
-0.000149416
-0.000289394
-1.68972e-06
0.000320399
0.00212631
2.82195e-12
1.09699e-10
2.4559e-09
9.54457e-07
2.82352e-05
0.00023717
0.000505983
0.000180823
0.0103728
-0.0348012
3.60244e-11
1.48429e-09
-1.85733e-07
5.06928e-06
0.000455228
0.00439644
0.010096
0.00165849
0.110111
-0.200245
8.10439e-11
2.83075e-09
-2.20227e-07
5.08126e-06
0.000533587
0.0051408
0.0114258
0.00229163
0.147555
-0.240522
7.53423e-11
2.67318e-09
-2.26262e-07
5.62468e-06
0.000542275
0.00515638
0.0112219
0.00269407
0.150495
-0.261032
7.04931e-11
2.5368e-09
-2.2896e-07
5.89076e-06
0.000551419
0.00522186
0.0113068
0.0024846
0.137062
-0.274106
7.36573e-11
2.63433e-09
-2.31275e-07
5.83113e-06
0.000565435
0.00538117
0.0117471
0.00195762
0.115822
-0.282022
8.47567e-11
2.96606e-09
-2.32162e-07
5.44984e-06
0.000584144
0.00563257
0.012547
0.00133632
0.0916084
-0.282914
9.80153e-11
3.36797e-09
-2.28627e-07
4.7843e-06
0.00060562
0.00595889
0.0137187
0.000815541
0.0677116
-0.275628
6.09717e-11
2.32727e-09
-2.16627e-07
5.16037e-06
0.000585522
0.00583845
0.0140708
0.000834665
0.0447378
-0.247089
-5.16079e-13
9.55872e-12
-2.78081e-09
1.25316e-06
4.27175e-05
0.000378279
0.00086134
0.000117334
0.00417227
-0.0229048
-2.0949e-11
-8.52887e-10
-2.39909e-08
-2.08129e-06
-6.14277e-05
-0.000594964
-0.00151506
0.000615648
0.0399209
0.335089
6.59567e-11
1.97041e-09
1.73057e-07
-1.19851e-05
-0.000782139
-0.00871299
-0.023954
0.0186398
0.441565
2.1526
7.89409e-11
2.02708e-09
2.22295e-07
-1.28598e-05
-0.000908546
-0.0100684
-0.0264952
0.0245401
0.600379
2.55975
8.35054e-11
2.07481e-09
2.20265e-07
-1.38395e-05
-0.000924881
-0.0100905
-0.025828
0.0230973
0.586663
2.61956
8.80697e-11
2.14418e-09
2.19309e-07
-1.43932e-05
-0.000938753
-0.0101739
-0.0259064
0.02059
0.510979
2.59925
9.25799e-11
2.19329e-09
2.23766e-07
-1.452e-05
-0.000958236
-0.0104072
-0.0267972
0.0177885
0.410368
2.54237
9.49873e-11
2.17353e-09
2.32505e-07
-1.42455e-05
-0.000983628
-0.0107898
-0.0284682
0.014619
0.304101
2.45224
9.10706e-11
2.0333e-09
2.42213e-07
-1.35925e-05
-0.00101251
-0.0112967
-0.0309498
0.0109692
0.201922
2.31696
9.15228e-11
2.33711e-09
2.20266e-07
-1.39565e-05
-0.000988318
-0.0111678
-0.0322441
0.00579268
0.0963087
1.94275
-1.61482e-11
-6.50529e-10
-1.82204e-08
-2.62448e-06
-8.85055e-05
-0.000903643
-0.00250372
0.000149545
0.00770937
0.0171391
3.74742e-11
2.30014e-09
6.92822e-08
3.88493e-06
0.000119674
0.00139807
0.00460993
-0.00729363
0.290714
-1.18416
1.21061e-10
4.13525e-09
2.60608e-08
2.30155e-05
0.00123013
0.0164069
0.0608515
-0.0303427
2.26185
-11.2846
1.33921e-10
4.33595e-09
1.11942e-08
2.61164e-05
0.00143004
0.0188482
0.0670173
-0.0496721
2.9162
-13.459
1.57228e-10
5.33182e-09
4.09553e-08
2.81623e-05
0.00146689
0.0189327
0.0649666
-0.05749
2.90219
-13.2286
1.64488e-10
5.84113e-09
6.06085e-08
2.95811e-05
0.00149297
0.0190206
0.0642597
-0.0518454
2.67824
-12.5942
1.57904e-10
5.88691e-09
6.77164e-08
3.05235e-05
0.00152306
0.0193005
0.0651284
-0.0402406
2.37551
-11.8677
1.40906e-10
5.57013e-09
6.3165e-08
3.10381e-05
0.00155838
0.019783
0.067515
-0.0261481
2.04246
-11.123
1.14377e-10
4.92249e-09
4.69493e-08
3.10176e-05
0.00159444
0.0204272
0.0715104
-0.0116192
1.69229
-10.285
1.03974e-10
4.85193e-09
6.2008e-08
3.12009e-05
0.00156442
0.0202609
0.0740716
-0.00165784
1.20293
-8.00855
3.2212e-11
2.02359e-09
6.40437e-08
4.76001e-06
0.000164408
0.00200352
0.00709305
-0.000889388
0.0643066
1.19047
-3.10458e-11
-3.70115e-09
-1.33612e-07
-6.00604e-06
-0.000201806
-0.00298426
-0.0144944
-0.0292452
0.347904
-0.279419
-2.50988e-10
-2.09139e-08
-5.37511e-07
-3.77477e-05
-0.00173714
-0.0285282
-0.15281
-0.228129
3.62422
35.6549
-3.3333e-10
-2.68727e-08
-7.1351e-07
-4.6522e-05
-0.00205829
-0.0328669
-0.169527
-0.312781
5.00171
43.2629
-3.78403e-10
-3.06492e-08
-8.44391e-07
-5.16682e-05
-0.00215223
-0.0332981
-0.165446
-0.315876
4.73878
41.0549
-4.01373e-10
-3.34044e-08
-9.5168e-07
-5.58378e-05
-0.00221785
-0.0334813
-0.161658
-0.282019
4.02157
37.5754
-4.12345e-10
-3.56345e-08
-1.04478e-06
-5.95431e-05
-0.00228067
-0.0338121
-0.159891
-0.23091
3.19469
34.1415
-4.14362e-10
-3.7467e-08
-1.12202e-06
-6.26991e-05
-0.00234114
-0.0343275
-0.160592
-0.169501
2.37559
31.0766
-3.97678e-10
-3.83602e-08
-1.16321e-06
-6.45825e-05
-0.00238497
-0.0349177
-0.164237
-0.101551
1.6144
28.031
-3.41449e-10
-3.62881e-08
-1.12506e-06
-6.39625e-05
-0.00233952
-0.0345644
-0.168004
-0.032532
0.762435
19.3927
-2.51359e-11
-3.47116e-09
-1.39258e-07
-7.6424e-06
-0.000271156
-0.00404639
-0.0198355
-0.00638787
0.349351
-10.629
9.25269e-12
4.64287e-09
2.17988e-07
7.96533e-06
0.00027452
0.00542542
0.0388985
-0.185124
1.00949
19.2661
1.34989e-10
5.4013e-08
2.09381e-06
7.14727e-05
0.00221177
0.0434278
0.352871
0.139542
9.95626
-63.1828
2.19588e-10
7.91558e-08
3.0479e-06
9.7328e-05
0.00276172
0.0508953
0.387402
0.564748
12.5919
-80.1276
2.64437e-10
9.2265e-08
3.58466e-06
0.00011141
0.00299614
0.0525346
0.377024
0.482821
12.2878
-72.8968
2.88026e-10
1.03568e-07
4.0605e-06
0.000123429
0.00317081
0.053369
0.367537
0.268155
10.6363
-63.088
3.00332e-10
1.14978e-07
4.52722e-06
0.000134686
0.00332365
0.0540826
0.362092
-0.00325119
8.45839
-54.2455
3.00823e-10
1.26311e-07
4.95775e-06
0.000144275
0.00344408
0.05467
0.361338
-0.264241
6.1211
-47.0788
2.75248e-10
1.35125e-07
5.24248e-06
0.00014932
0.0034854
0.0547204
0.365431
-0.459802
3.87556
-40.5309
1.91924e-10
1.26236e-07
5.00699e-06
0.000144586
0.00338394
0.053599
0.372122
-0.613704
1.8088
-20.5878
2.8734e-12
5.6891e-09
3.32123e-07
1.31216e-05
0.000398556
0.00717432
0.0530472
-0.0426137
-1.3009
45.4523
-5.84776e-11
-9.8988e-09
-3.73359e-07
-9.45769e-06
-0.000258945
-0.00754058
-0.150442
0.0600736
-36.3124
-103.374
-1.41643e-09
-2.20856e-07
-8.0054e-06
-0.000162593
-0.00274585
-0.0535378
-0.98964
5.69325
-39.6942
56.1219
-2.22957e-09
-3.46009e-07
-1.19612e-05
-0.000231409
-0.00373656
-0.066955
-1.09028
9.53692
-28.4619
78.6734
-2.63165e-09
-4.11471e-07
-1.4015e-05
-0.000267326
-0.00424811
-0.0723993
-1.0844
9.18052
-30.6348
65.9401
-3.01063e-09
-4.71582e-07
-1.5831e-05
-0.000297284
-0.00463964
-0.075505
-1.06847
7.6213
-38.9924
50.5366
-3.428e-09
-5.3359e-07
-1.75728e-05
-0.000323617
-0.00495428
-0.0774086
-1.05346
5.41919
-49.7748
37.9048
-3.87659e-09
-5.93703e-07
-1.9054e-05
-0.000342431
-0.00514234
-0.0778517
-1.03663
2.80787
-62.5913
29.3128
-4.29543e-09
-6.38425e-07
-1.9791e-05
-0.000344944
-0.00508133
-0.0755734
-1.01025
-0.00639678
-76.7994
22.1961
-4.08411e-09
-6.02007e-07
-1.86954e-05
-0.000325412
-0.00479657
-0.0715138
-0.976406
-3.94524
-94.8479
-6.94131
-1.135e-10
-2.45358e-08
-1.14661e-06
-2.83216e-05
-0.000555584
-0.0103322
-0.154639
-0.492366
-51.654
-142.223
-4.22085e-11
-4.52872e-09
2.19333e-08
4.46866e-06
0.000169745
0.0072647
0.385654
20.5752
288.291
602.686
1.70204e-09
3.41653e-07
1.40007e-05
0.000283928
0.00471135
0.0806952
2.84585
161.33
646.186
657.746
3.13162e-09
5.42357e-07
2.00711e-05
0.000390506
0.0064668
0.108855
3.49506
183.401
718.101
649.766
3.89972e-09
6.40716e-07
2.28303e-05
0.000440395
0.00734489
0.12158
3.52314
176.021
707.493
634.776
4.64055e-09
7.27624e-07
2.50059e-05
0.000477126
0.00798608
0.129012
3.35427
164.593
679.83
620.043
5.39793e-09
8.07293e-07
2.66613e-05
0.000501102
0.00840908
0.132968
3.10242
152.267
645.569
607.274
6.09462e-09
8.66486e-07
2.73219e-05
0.000502969
0.00846724
0.132397
2.80225
139.678
607.366
598.514
6.56873e-09
8.80058e-07
2.61696e-05
0.000467224
0.00789819
0.124085
2.45304
127.118
563.502
593.655
6.1425e-09
8.00785e-07
2.33212e-05
0.000411964
0.00707759
0.113659
2.06025
105.821
471.62
581.856
1.46646e-10
3.4213e-08
1.76657e-06
4.57769e-05
0.000942675
0.0167956
0.312189
11.8063
181.296
480.278
-6.74839e-11
-1.93295e-08
-1.20274e-06
-3.00689e-05
-0.000360768
0.0122202
1.00182
40.1544
463.214
1010.45
-6.41578e-09
-8.66897e-07
-2.87192e-05
-0.000548857
-0.0087571
-0.0311406
6.22144
246.357
911.341
976.813
-9.02023e-09
-1.15363e-06
-3.60861e-05
-0.000677187
-0.0110094
-0.0539067
6.8544
272.593
989.305
959.356
-9.8443e-09
-1.2413e-06
-3.81359e-05
-0.000715844
-0.01194
-0.0764119
6.2662
262.052
978.231
953.117
-1.03893e-08
-1.28397e-06
-3.85437e-05
-0.000722274
-0.0124156
-0.0999723
5.42174
248.472
956.099
947.808
-1.07404e-08
-1.28826e-06
-3.73891e-05
-0.000695843
-0.0123561
-0.119823
4.506
235.105
932.696
942.865
-1.07586e-08
-1.235e-06
-3.40459e-05
-0.000622974
-0.0114546
-0.129146
3.61725
222.322
909.708
939.224
-1.02096e-08
-1.09368e-06
-2.75838e-05
-0.000484433
-0.00928959
-0.119001
2.87112
210.292
884.264
937.398
-8.67774e-09
-8.84788e-07
-2.06911e-05
-0.0003471
-0.00710783
-0.10919
1.86115
184.346
795.394
940.343
-3.69832e-10
-6.85633e-08
-3.00352e-06
-7.24854e-05
-0.00149512
-0.021099
0.195983
24.7068
364.561
931.826
4.49798e-10
8.15731e-08
3.92067e-06
0.000121039
0.00381538
0.122576
3.27371
68.316
590.721
1147.11
8.05059e-09
9.19613e-07
2.92411e-05
0.000741674
0.023025
0.775221
22.5975
347.68
1050.38
1063.54
9.96833e-09
1.08926e-06
3.30555e-05
0.000833211
0.0260959
0.881869
25.4488
384.235
1125.3
1039.91
1.00146e-08
1.08248e-06
3.22581e-05
0.000815095
0.0258691
0.879599
25.0706
377.715
1116.95
1035.96
9.44593e-09
9.94465e-07
2.86578e-05
0.000730621
0.0239635
0.836498
24.1087
368.772
1100.6
1033.96
8.40594e-09
8.38102e-07
2.26018e-05
0.000588857
0.0206788
0.763245
22.8403
360.831
1084.09
1032.73
6.81636e-09
6.03928e-07
1.38226e-05
0.000384591
0.0159051
0.657214
21.1928
353.346
1067.95
1033.34
4.51066e-09
2.72899e-07
1.78044e-06
0.000107095
0.00940657
0.512126
19.0163
345.116
1049.39
1036.87
2.19082e-09
-1.72488e-08
-7.93445e-06
-0.000118861
0.00378221
0.370707
16.3472
321
971.239
1049.25
3.58202e-10
5.31743e-08
1.90193e-06
5.35642e-05
0.00205755
0.0851612
2.73652
64.5033
531.6
1091.3
4.043e-10
7.37643e-08
3.68691e-06
0.000116074
0.0036253
0.115843
3.10614
66.3489
643.349
1253.83
6.17848e-09
7.19128e-07
2.40025e-05
0.000608366
0.0194623
0.702173
21.6653
346.97
1159.37
1115.07
7.04875e-09
7.90146e-07
2.53042e-05
0.000636608
0.0208811
0.769869
23.84
379.598
1244.99
1086.35
7.01557e-09
7.98888e-07
2.58197e-05
0.000651313
0.0212997
0.775913
23.4052
371.718
1242.82
1085.61
7.07719e-09
8.25234e-07
2.71189e-05
0.000685092
0.0220902
0.78711
23.1259
365.595
1235.91
1084.66
7.35858e-09
8.7874e-07
2.93464e-05
0.000741507
0.0234727
0.814355
23.3264
365.612
1233.25
1080.6
7.96654e-09
9.70778e-07
3.28288e-05
0.000828214
0.0256688
0.864172
24.1464
373.013
1235.67
1073.28
9.06259e-09
1.1198e-06
3.81604e-05
0.000958239
0.0289712
0.943341
25.748
388.51
1238.23
1064.5
9.47083e-09
1.18174e-06
4.02474e-05
0.000999411
0.0299016
0.965481
26.2035
382.633
1161.15
1080.32
4.71597e-10
9.29143e-08
4.94807e-06
0.000162536
0.00513762
0.159098
3.96433
76.1202
651.718
1217.04
6.08225e-10