/*--------------------------------*- C++ -*----------------------------------*\
| =========                 |                                                 |
| \\      /  F ield         | OpenFOAM: The Open Source CFD Toolbox           |
|  \\    /   O peration     | Version:  1.7.x                                 |
|   \\  /    A nd           | Web:      www.OpenFOAM.com                      |
|    \\/     M anipulation  |                                                 |
\*---------------------------------------------------------------------------*/
FoamFile
{
    version     2.0;
    format      ascii;
    class       surfaceScalarField;
    location    "0.2";
    object      phi;
}
// * * * * * * * * * * * * * * * * * * * * * * * * * * * * * * * * * * * * * //

dimensions      [0 3 -1 0 0 0 0];

internalField   nonuniform List<scalar> 
22300
(
0.000542434
0.000791534
0.048666
6.95338e-05
0.000726659
0.0497462
-7.05589e-05
0.000728426
0.0494117
-0.000107107
0.000749732
0.0492868
-0.000127652
0.000739825
0.0492807
-0.000131943
0.000741919
0.0492624
-0.000149573
0.000743408
0.0492742
-0.000265783
0.000740764
0.0493754
-0.000678563
0.000756864
0.0496559
0.000766016
0.0485554
0.00050601
0.000369687
0.0499158
-4.7356e-05
0.00032742
0.0509526
-0.000159636
0.000330823
0.0505099
-0.000120183
0.000341647
0.0503686
-0.000104776
0.000336278
0.0503881
-6.27895e-05
0.000338016
0.0503619
-2.73976e-05
0.000339521
0.0503685
-0.000118991
0.00033901
0.0504933
-0.000557504
0.000350074
0.0508453
0.000358205
0.0498503
0.000493682
0.000180016
0.049696
-7.64716e-05
0.00016668
0.0507309
-0.000174162
0.000167204
0.0502613
-0.000122431
0.000169757
0.0501202
-0.000100867
0.000167819
0.0501469
-5.12588e-05
0.000168879
0.0501195
-6.92074e-06
0.000170252
0.0501249
-9.15819e-05
0.000171045
0.0502526
-0.000531942
0.000176179
0.0506143
0.000178759
0.0496475
0.00048704
8.03944e-05
0.0496126
-7.97559e-05
7.74014e-05
0.0506561
-0.000173592
7.84191e-05
0.0501826
-0.000122422
7.87862e-05
0.0500398
-0.000100242
7.81385e-05
0.0500675
-5.02195e-05
7.87542e-05
0.0500401
-5.28157e-06
7.96281e-05
0.0500457
-8.8149e-05
8.0155e-05
0.0501738
-0.000528299
8.18633e-05
0.0505345
8.18129e-05
0.0495686
0.000484735
5.11857e-06
0.0495905
-8.11615e-05
4.39947e-06
0.0506389
-0.000173575
6.16746e-06
0.0501647
-0.000122472
6.55217e-06
0.0500211
-9.99941e-05
6.44665e-06
0.0500492
-4.98152e-05
6.7207e-06
0.0500219
-4.75864e-06
6.97971e-06
0.0500276
-8.72275e-05
6.81836e-06
0.0501558
-0.000527625
6.77754e-06
0.0505155
6.44856e-06
0.0495477
0.000484566
-7.07184e-05
0.0495913
-8.22448e-05
-6.90549e-05
0.0506403
-0.000174218
-6.68423e-05
0.050165
-0.000122509
-6.65026e-05
0.0500213
-9.97622e-05
-6.60635e-05
0.0500498
-4.92968e-05
-6.61642e-05
0.0500224
-3.88909e-06
-6.65521e-05
0.0500281
-8.6275e-05
-6.73677e-05
0.0501566
-0.00052693
-6.91609e-05
0.0505166
-6.97272e-05
0.0495492
0.000486525
-0.000171445
0.0496142
-8.28432e-05
-0.000159212
0.0506595
-0.000175424
-0.000157256
0.050183
-0.000122522
-0.000159298
0.0500399
-9.95484e-05
-0.000157569
0.0500685
-4.86906e-05
-0.000158189
0.0500412
-2.74026e-06
-0.000159119
0.0500466
-8.53424e-05
-0.000160065
0.0501753
-0.000526234
-0.000165208
0.0505369
-0.000168345
0.0495724
0.000492832
-0.000362822
0.0496985
-8.14969e-05
-0.00032084
0.050736
-0.000177169
-0.000323061
0.0502615
-0.00012263
-0.00033382
0.05012
-9.97984e-05
-0.000328584
0.0501482
-4.88465e-05
-0.000330008
0.0501209
-2.91488e-06
-0.000331079
0.050126
-8.71458e-05
-0.000330468
0.0502546
-0.000528714
-0.000341394
0.0506178
-0.000350154
0.0496531
0.00050502
-0.000787734
0.0499199
-5.41981e-05
-0.000721248
0.0509596
-0.000163508
-0.000724151
0.0505104
-0.000120437
-0.0007455
0.0503686
-0.000103393
-0.000735547
0.0503899
-5.96039e-05
-0.000737502
0.0503637
-2.19363e-05
-0.0007387
0.05037
-0.000113016
-0.000735579
0.0504962
-0.000553086
-0.000751634
0.0508503
-0.000761498
0.0498583
0.00054067
0.0486716
6.66654e-05
0.0497528
-7.26433e-05
0.0494152
-0.000107198
0.0492891
-0.000126637
0.0492839
-0.000129675
0.0492655
-0.000145761
0.0492774
-0.000261126
0.0493798
-0.000674928
0.0496622
0.0485636
0.00124808
0.00124471
0.0461732
0.000711847
0.00138588
0.0488966
0.000186045
0.00135133
0.0485861
-0.000217335
0.00130331
0.0483869
-0.000474003
0.00130767
0.0482297
-0.000704711
0.00130473
0.0481884
-0.000965275
0.00130836
0.0482264
-0.00128979
0.00133071
0.0483693
-0.00158985
0.00134
0.048616
0.00128587
0.0456797
0.00120682
0.000823893
0.0491298
0.000806628
0.000900004
0.0518387
0.00027739
0.000878899
0.0515115
-0.000231746
0.000848232
0.0513328
-0.000535011
0.000848135
0.0511509
-0.000834847
0.000846112
0.0511204
-0.00118125
0.000850283
0.051173
-0.00154064
0.000867694
0.0513157
-0.00178912
0.000877179
0.0515566
0.000847256
0.0484998
0.00119973
0.000483656
0.0488365
0.000815949
0.000508174
0.0515065
0.000284007
0.000503493
0.0511687
-0.000238032
0.000494234
0.0509962
-0.000544469
0.000493492
0.050808
-0.000852399
0.00049304
0.0507805
-0.00120969
0.000495671
0.0508368
-0.0015748
0.000502974
0.0509825
-0.00182195
0.000506794
0.0512318
0.000494416
0.0481784
0.0012055
0.000233806
0.0486569
0.0008146
0.000239534
0.0513156
0.000279638
0.000237502
0.0509836
-0.000240387
0.000235825
0.0508182
-0.00054459
0.000235495
0.0506297
-0.000850356
0.000235393
0.0506035
-0.00120565
0.000236536
0.0506601
-0.00157228
0.000239406
0.050804
-0.00182534
0.000241246
0.0510531
0.000237808
0.0479999
0.00120846
2.09995e-05
0.0485949
0.000814787
2.16971e-05
0.0512504
0.000277974
1.82581e-05
0.0509207
-0.000241159
1.76062e-05
0.0507585
-0.000544039
1.77608e-05
0.0505698
-0.000848406
1.75483e-05
0.0505441
-0.00120259
1.75938e-05
0.0506007
-0.00156987
1.8806e-05
0.0507437
-0.00182579
2.03575e-05
0.0509923
2.09103e-05
0.0479389
0.00120794
-0.000193884
0.0485982
0.000815629
-0.000198313
0.0512526
0.000278753
-0.000202586
0.0509227
-0.000241062
-0.000202133
0.0507609
-0.000544139
-0.000201447
0.050572
-0.000848779
-0.000201729
0.0505463
-0.00120349
-0.000202782
0.0506032
-0.00157073
-0.000203361
0.050746
-0.00182615
-0.000202259
0.0509946
-0.000197733
0.0479417
0.001204
-0.000450115
0.0486664
0.000816948
-0.000473512
0.0513218
0.000281866
-0.000473744
0.0509892
-0.000240097
-0.000465407
0.0508251
-0.000544887
-0.000464244
0.0506361
-0.000851461
-0.000464106
0.0506101
-0.00120831
-0.000466685
0.0506674
-0.00157484
-0.000472266
0.0508107
-0.00182647
-0.00047374
0.05106
-0.000460249
0.0480084
0.00119751
-0.000799948
0.0488509
0.000819864
-0.000875672
0.0515158
0.000287741
-0.000857363
0.0511772
-0.000237506
-0.000826733
0.0510066
-0.000544895
-0.000826259
0.0508176
-0.000854152
-0.000824391
0.0507904
-0.00121394
-0.000828579
0.0508477
-0.00157887
-0.000845419
0.0509927
-0.00182366
-0.000853691
0.0512425
-0.00082241
0.0481916
0.0012035
-0.00123172
0.0491482
0.000811346
-0.00137426
0.0518504
0.000282135
-0.00134055
0.0515228
-0.000231085
-0.00129125
0.0513463
-0.00053553
-0.00129535
0.0511635
-0.000837163
-0.00129233
0.0511333
-0.00118686
-0.00129603
0.0511871
-0.00154636
-0.00131895
0.0513292
-0.00179204
-0.00132823
0.0515705
-0.00127229
0.0485161
0.00124775
0.0461921
0.000715692
0.0489106
0.000189088
0.0486012
-0.000216413
0.0484033
-0.000473462
0.0482456
-0.000705136
0.0482049
-0.000967791
0.048244
-0.00129364
0.0483867
-0.00159292
0.0486332
0.0456984
0.0010071
0.00132317
0.043843
0.000325404
0.00129214
0.0482862
-0.000195366
0.00134755
0.0477593
-0.00048768
0.00141372
0.0472655
-0.000716348
0.00142395
0.0470344
-0.000852886
0.00143622
0.0468887
-0.000972335
0.00143661
0.0469093
-0.00115892
0.00140947
0.0471464
-0.00134568
0.00140365
0.0473991
0.00137446
0.0429596
0.00122647
0.00105125
0.0481753
0.00035173
0.00107429
0.0529312
-0.000247663
0.00109562
0.0523629
-0.000450204
0.00112365
0.0518255
-0.000647731
0.00112963
0.0516428
-0.000733576
0.00113868
0.0515038
-0.000786827
0.00114406
0.0515188
-0.000981028
0.00113512
0.0517843
-0.00124313
0.00113553
0.0520868
0.00108993
0.0475412
0.00124757
0.000680374
0.0479598
0.000358467
0.000715246
0.0527546
-0.000247945
0.000717313
0.0521534
-0.000440273
0.000720265
0.0515919
-0.000634699
0.00072085
0.0514112
-0.000713197
0.000725338
0.0512724
-0.00075536
0.000731029
0.051292
-0.000944767
0.000733234
0.0515738
-0.0012111
0.000735668
0.051898
0.000700615
0.0473566
0.00124776
0.000340957
0.0477486
0.00035638
0.000361931
0.0525603
-0.000249234
0.000362302
0.0519442
-0.00043928
0.000359202
0.0513694
-0.000632213
0.000358667
0.0511848
-0.000708791
0.000360911
0.0510445
-0.000749571
0.000364759
0.0510672
-0.000937901
0.000367868
0.0513577
-0.0012079
0.000369059
0.0516897
0.000351306
0.0471413
0.00124877
2.60599e-05
0.047661
0.000354135
2.78479e-05
0.0524791
-0.000251073
3.19106e-05
0.0518563
-0.000439585
3.18227e-05
0.0512744
-0.000631216
3.1993e-05
0.0510881
-0.00070638
3.30329e-05
0.0509471
-0.000746302
3.4104e-05
0.0509713
-0.00093509
3.38891e-05
0.0512665
-0.00120888
3.2567e-05
0.0516026
3.05767e-05
0.0470507
0.00124947
-0.000290963
0.0476658
0.0003534
-0.000308432
0.0524849
-0.00025208
-0.000301347
0.0518614
-0.000439477
-0.000298299
0.0512784
-0.000630424
-0.000297477
0.0510925
-0.000704974
-0.000297734
0.0509517
-0.000744205
-0.000299546
0.0509761
-0.000933516
-0.00030309
0.0512723
-0.00120845
-0.000306835
0.051609
-0.000292994
0.0470569
0.00124976
-0.000636476
0.0477622
0.000354339
-0.00066853
0.0525773
-0.000252102
-0.000664695
0.051959
-0.000438966
-0.000667516
0.0513812
-0.000629912
-0.000667863
0.0511975
-0.000704713
-0.000670602
0.0510578
-0.000743511
-0.000674518
0.0510811
-0.000933357
-0.000676887
0.0513744
-0.00120657
-0.000681417
0.0517078
-0.00064978
0.0471587
0.00125048
-0.00101684
0.0479808
0.000355045
-0.0010385
0.0527812
-0.000252491
-0.00105631
0.0521764
-0.00043973
-0.0010842
0.0516105
-0.000631107
-0.00108999
0.0514311
-0.000706825
-0.00109781
0.0512933
-0.000745857
-0.00110186
0.0513141
-0.000937607
-0.00109242
0.0516
-0.00120899
-0.00109378
0.0519262
-0.00105037
0.0473832
0.00123136
-0.00130355
0.0482035
0.000348122
-0.0012713
0.0529664
-0.000253171
-0.00132584
0.0523936
-0.000449269
-0.00139262
0.0518509
-0.000643058
-0.00140286
0.0516701
-0.000725312
-0.00141464
0.0515324
-0.000774455
-0.00141431
0.0515487
-0.000971017
-0.00138587
0.0518192
-0.00123917
-0.00137979
0.0521247
-0.00135193
0.0475785
0.00100852
0.04388
0.000322056
0.0483257
-0.000198353
0.0477958
-0.000486132
0.0472985
-0.000712174
0.0470688
-0.000845856
0.0469239
-0.000962172
0.046946
-0.00114847
0.0471871
-0.00133836
0.0474433
0.0430081
0.00063667
0.00122843
0.0419779
0.000304138
0.00135243
0.0472663
-0.000327804
0.00131858
0.0470727
-0.000935192
0.00127645
0.0465964
-0.00125524
0.00127871
0.0460758
-0.00151157
0.00128211
0.0458629
-0.00176602
0.00128935
0.0458744
-0.00195418
0.00133019
0.0460043
-0.00180431
0.00136562
0.0458836
0.00130805
0.0398472
0.000486033
0.00104423
0.0478734
0.000447888
0.00111706
0.0532048
-0.000128118
0.00112763
0.0531298
-0.00091877
0.00112187
0.0527707
-0.00135544
0.00111922
0.0522389
-0.00172786
0.00112188
0.0520364
-0.00211567
0.00112692
0.052069
-0.00231455
0.00114725
0.0521661
-0.00202142
0.00116059
0.0519987
0.00111531
0.0457125
0.000431916
0.000721998
0.0478501
0.000441459
0.000747335
0.0531148
-0.000124094
0.000761885
0.0530847
-0.000924889
0.000767437
0.0527471
-0.00136835
0.000767562
0.0522063
-0.001747
0.000769396
0.0520035
-0.00214321
0.000772524
0.0520426
-0.00233786
0.000780073
0.0521356
-0.00202422
0.000785561
0.0519594
0.000760357
0.0456874
0.000425579
0.000389614
0.0476554
0.000441927
0.000393749
0.0528975
-0.000127447
0.000399033
0.0528764
-0.000930496
0.00040481
0.052535
-0.00137057
0.000405288
0.0519872
-0.00174573
0.000405996
0.0517831
-0.00213954
0.00040725
0.0518263
-0.00233471
0.000409882
0.051923
-0.00202258
0.000413392
0.0517497
0.000405398
0.0454737
0.000423747
4.89606e-05
0.0475779
0.000442851
4.56018e-05
0.0528082
-0.000128862
4.26739e-05
0.0527844
-0.000933004
4.37354e-05
0.0524396
-0.00137093
4.40328e-05
0.0518873
-0.00174388
4.3772e-05
0.0516823
-0.00213636
4.36331e-05
0.0517274
-0.00233173
4.47126e-05
0.051827
-0.00202174
4.78886e-05
0.0516581
5.22349e-05
0.0453821
0.000422208
-0.000296655
0.0475892
0.000443976
-0.000307131
0.0528159
-0.000126933
-0.000317458
0.0527925
-0.000932308
-0.000321319
0.0524489
-0.00137078
-0.00032116
0.0518961
-0.00174407
-0.000322352
0.0516911
-0.00213717
-0.000323861
0.0517367
-0.0023318
-0.000324462
0.0518361
-0.00202026
-0.000322028
0.0516673
-0.000305659
0.0453945
0.000421251
-0.000642278
0.0476866
0.000445271
-0.000672403
0.0529185
-0.000121743
-0.000690864
0.0528994
-0.000928428
-0.000694848
0.0525614
-0.0013701
-0.000694312
0.0520123
-0.00174623
-0.000696532
0.0518081
-0.00214184
-0.000699852
0.0518527
-0.00233495
-0.000705878
0.0519489
-0.00201848
-0.000706362
0.0517757
-0.000673995
0.0455085
0.000425418
-0.000984999
0.0478981
0.000446985
-0.00105957
0.0531468
-0.000114989
-0.00107355
0.053121
-0.000921642
-0.00106683
0.0527891
-0.0013675
-0.00106358
0.0522462
-0.00174769
-0.00106636
0.0520434
-0.00214684
-0.00107137
0.0520848
-0.00233829
-0.00109072
0.0521763
-0.00201767
-0.00110056
0.0519998
-0.00105086
0.0457424
0.000475957
-0.00119607
0.0479386
0.000453678
-0.0013208
0.0532499
-0.000116885
-0.00128934
0.05318
-0.000914823
-0.00124605
0.052828
-0.0013544
-0.00124777
0.0522939
-0.00172887
-0.00125104
0.0520915
-0.00212052
-0.00125811
0.0521271
-0.00231576
-0.00129892
0.0522227
-0.00201451
-0.0013327
0.0520556
-0.00127327
0.0457864
0.000631091
0.0420529
0.000308639
0.0473274
-0.000321478
0.0471366
-0.000932772
0.0466637
-0.0012529
0.0461411
-0.00150956
0.0459295
-0.00176646
0.0459448
-0.00195449
0.0460762
-0.00180226
0.0459584
0.0399325
0.000529899
0.00125263
0.0401953
-0.000722494
0.0013244
0.0471943
-0.00138213
0.00125601
0.0464763
-0.00147723
0.00125822
0.0454333
-0.00151275
0.00128061
0.0448307
-0.00140416
0.00129698
0.0444573
-0.00123996
0.00132373
0.0443864
-0.00123333
0.00133794
0.0446598
-0.0012864
0.00138381
0.0445528
0.00127936
0.0372815
0.000791659
0.00114466
0.0471898
-0.000713564
0.0012671
0.0547673
-0.00150752
0.00116445
0.0540153
-0.00147739
0.00111535
0.0528834
-0.00141062
0.00112407
0.0523287
-0.00121914
0.00113467
0.0520072
-0.000962449
0.00116519
0.0519709
-0.00100803
0.00120632
0.0523433
-0.00120616
0.00126167
0.052319
0.00112868
0.0446571
0.000790217
0.000811545
0.047393
-0.000749742
0.000901782
0.0550201
-0.0015465
0.000831287
0.0542146
-0.00148886
0.000788626
0.0530162
-0.00139284
0.000782959
0.0524514
-0.00117954
0.000787408
0.0521375
-0.000901346
0.000807797
0.0521218
-0.000940095
0.000840478
0.0525402
-0.00114286
0.000875766
0.052548
0.000793192
0.04488
0.000774301
0.000443068
0.0472496
-0.000789996
0.000490215
0.0548734
-0.00158022
0.000458414
0.0540395
-0.0015011
0.000433994
0.0528105
-0.00139058
0.000428507
0.0522311
-0.00116462
0.000430805
0.0519137
-0.000875849
0.000442236
0.051903
-0.000910972
0.000460768
0.0523379
-0.00112238
0.000476628
0.0523603
0.000436223
0.0447083
0.000767749
5.94266e-05
0.0471938
-0.000812343
6.5192e-05
0.0548133
-0.00159954
6.48526e-05
0.0539652
-0.00150857
6.25448e-05
0.0527201
-0.00138981
6.28917e-05
0.0521342
-0.0011566
6.48965e-05
0.051815
-0.000861805
6.82981e-05
0.0518065
-0.000896068
7.18537e-05
0.0522502
-0.00111549
7.19897e-05
0.0522822
6.59305e-05
0.0446369
0.000768373
-0.000329308
0.0472095
-0.000814776
-0.000365572
0.0548298
-0.00160269
-0.000334796
0.05398
-0.00150928
-0.000314423
0.0527324
-0.00138835
-0.000308291
0.0521464
-0.0011534
-0.000306759
0.0518278
-0.000857007
-0.000311757
0.0518204
-0.000892265
-0.000323544
0.0522667
-0.00111509
-0.000339137
0.0523013
-0.000310574
0.0446559
0.000776014
-0.0007129
0.0472941
-0.000797053
-0.000794443
0.0549205
-0.00158954
-0.000724749
0.0540819
-0.00150316
-0.000685237
0.0528459
-0.00138635
-0.000678897
0.0522661
-0.00115539
-0.00067996
0.0519503
-0.000862162
-0.000694844
0.0519426
-0.00090016
-0.000721689
0.0523851
-0.00112099
-0.000757027
0.0524144
-0.000685017
0.044762
0.000792749
-0.0010711
0.0474635
-0.000760558
-0.00119006
0.0550957
-0.00156064
-0.00108544
0.0542818
-0.0014917
-0.00103726
0.0530722
-0.00138609
-0.00104536
0.0525071
-0.00116515
-0.00105348
0.052196
-0.000880135
-0.00108042
0.0521853
-0.000923572
-0.00111812
0.0526162
-0.00114109
-0.00117402
0.0526343
-0.00104719
0.0449635
0.000796869
-0.00121349
0.0472841
-0.000724931
-0.00128536
0.054867
-0.00152419
-0.00121344
0.0541072
-0.00148039
-0.0012152
0.0529622
-0.00140179
-0.00123758
0.0524075
-0.00120089
-0.0012528
0.0520899
-0.000935981
-0.00127823
0.05206
-0.00098725
-0.00129119
0.052447
-0.00120243
-0.00133696
0.0524337
-0.00123254
0.0447693
0.000527506
0.0403119
-0.000735381
0.0473049
-0.00139428
0.046582
-0.00147747
0.0455317
-0.00150379
0.0449299
-0.00138704
0.04456
-0.00121551
0.0444951
-0.00121087
0.0447804
-0.00127409
0.0446847
0.0374259
-0.00023915
0.00112245
0.039312
-0.000827876
0.00118124
0.0466017
-0.00162308
0.00131215
0.0459594
-0.00227088
0.00136692
0.0447142
-0.00244677
0.00133231
0.0436743
-0.00249104
0.00134797
0.0431536
-0.00250914
0.00135383
0.0430507
-0.00243688
0.00135284
0.0432347
-0.00202187
0.00135073
0.0427871
0.001392
0.0338676
-0.000322883
0.00105944
0.0475757
-0.000585581
0.00103055
0.0551807
-0.00124153
0.00114958
0.0548339
-0.00206919
0.00122011
0.0538579
-0.00248558
0.00118915
0.0528883
-0.00272525
0.00119877
0.0523961
-0.00293397
0.00119942
0.052334
-0.00287842
0.00117994
0.0524607
-0.00226729
0.00117322
0.0518854
0.00123935
0.0425424
-0.000405691
0.000806441
0.0480517
-0.000603341
0.000767481
0.0554808
-0.00122185
0.000817365
0.0551653
-0.00205698
0.000848659
0.0542228
-0.00248845
0.000834506
0.0532375
-0.00273294
0.000837733
0.052743
-0.00294259
0.000840433
0.0526905
-0.00287456
0.000836202
0.0528159
-0.00224833
0.00084766
0.0522474
0.000874576
0.0429964
-0.000441298
0.000463727
0.0480336
-0.000620504
0.000444014
0.0553761
-0.00123636
0.000458143
0.0550146
-0.00207668
0.000469116
0.0540304
-0.00249836
0.000463304
0.053024
-0.00273425
0.000463796
0.0525235
-0.0029356
0.000465469
0.0524794
-0.00285666
0.000465084
0.05263
-0.00222616
0.000474738
0.0521027
0.000481705
0.042875
-0.000462066
8.70009e-05
0.0480326
-0.000633222
7.93725e-05
0.0553491
-0.00124575
8.09961e-05
0.0549548
-0.00208796
8.22777e-05
0.0539491
-0.00250323
8.23248e-05
0.0529304
-0.00273312
8.26035e-05
0.0524261
-0.00292952
8.23345e-05
0.0523861
-0.00284333
8.12422e-05
0.0525478
-0.00221094
8.47042e-05
0.0520398
9.69138e-05
0.0428108
-0.000465236
-0.000296223
0.048058
-0.000632899
-0.000291749
0.0553686
-0.00124334
-0.000302836
0.0549743
-0.00208654
-0.000311721
0.0539696
-0.0025025
-0.000305845
0.0529505
-0.0027327
-0.000305744
0.0524463
-0.00292965
-0.000307849
0.0524075
-0.00284221
-0.00030934
0.0525699
-0.00220748
-0.000311727
0.052063
-0.000293615
0.042839
-0.000450439
-0.000661979
0.0481103
-0.000618693
-0.000635189
0.0554322
-0.00122881
-0.000682184
0.0550713
-0.0020726
-0.000711472
0.0540894
-0.0024963
-0.000697412
0.0530813
-0.00273317
-0.000700076
0.0525815
-0.00293607
-0.000703086
0.0525407
-0.00285363
-0.000700729
0.052694
-0.00221642
-0.00070575
0.0521712
-0.000709437
0.0429614
-0.000419564
-0.000948811
0.0481699
-0.000599978
-0.000926279
0.0555672
-0.00121002
-0.00104542
0.0552551
-0.00205036
-0.00111526
0.0543163
-0.00248495
-0.0010839
0.0533282
-0.00273117
-0.00109285
0.052835
-0.00294332
-0.00109321
0.0527876
-0.00287018
-0.00107411
0.0529164
-0.00223284
-0.00106263
0.0523539
-0.00111216
0.0431334
-0.000342125
-0.00105911
0.0477366
-0.00058317
-0.00111561
0.0552974
-0.00122588
-0.00125263
0.0549571
-0.00205964
-0.00130872
0.0539894
-0.00248059
-0.00127249
0.053017
-0.00272242
-0.00128782
0.0525267
-0.00293397
-0.00129295
0.0524713
-0.00287256
-0.00128949
0.052601
-0.00224921
-0.00128262
0.0520303
-0.00131807
0.042726
-0.000248003
0.0395008
-0.000821952
0.0467632
-0.00161132
0.0461188
-0.00226365
0.0448753
-0.00244003
0.0438338
-0.0024836
0.0433158
-0.00250292
0.0432214
-0.00242677
0.0434148
-0.00200785
0.0429831
0.0341
-0.000802255
0.00173424
0.03838
-0.00312431
0.00191974
0.0470041
-0.00381006
0.0016136
0.0450315
-0.00337499
0.00142469
0.0428544
-0.00293228
0.00146046
0.0417711
-0.00233161
0.00147794
0.041075
-0.00154206
0.00156763
0.0406935
-0.00110585
0.00174231
0.0410562
-0.00116469
0.00189359
0.0409524
0.00150774
0.0311952
-1.67169e-05
0.00172586
0.0476008
-0.00263817
0.00188098
0.0578409
-0.00371944
0.0015747
0.055954
-0.00329542
0.00134672
0.0535118
-0.00276628
0.00134218
0.0524774
-0.00211995
0.00135111
0.0518766
-0.00123926
0.00143037
0.0515906
-0.000866507
0.0016094
0.0522208
-0.00119388
0.00179418
0.0523121
0.00152859
0.0413277
4.80596e-05
0.00118513
0.0485444
-0.00272093
0.00130135
0.0588294
-0.00382628
0.00111582
0.0567296
-0.00332108
0.000979564
0.0540848
-0.00274022
0.000953776
0.053045
-0.00205778
0.000955695
0.052456
-0.00112896
0.00100169
0.0521903
-0.000754023
0.00109932
0.052951
-0.00114026
0.00119928
0.0532285
0.00105975
0.042325
-2.72316e-05
0.000617632
0.0486283
-0.00285585
0.000677375
0.0588287
-0.00393256
0.000610781
0.0565963
-0.00336015
0.000553106
0.0538845
-0.0027462
0.000534463
0.0528293
-0.00203234
0.000534637
0.0522307
-0.00106551
0.000557105
0.0519571
-0.000675477
0.000599666
0.0527396
-0.00109003
0.000637137
0.0530794
0.000582792
0.0422619
-6.47011e-05
0.00011594
0.048599
-0.00292839
0.000117413
0.0587727
-0.00399123
0.000113639
0.0565148
-0.00338471
0.000112083
0.0537836
-0.00274967
0.000112039
0.0527178
-0.00201696
0.000114738
0.0521132
-0.00103083
0.000121179
0.0518359
-0.000635779
0.000131732
0.0526207
-0.00107033
0.000139973
0.0529715
0.000139704
0.0421835
-6.33251e-05
-0.000390515
0.0486278
-0.00293221
-0.000447964
0.0588028
-0.00399627
-0.000391595
0.0565436
-0.00338567
-0.000338553
0.0538097
-0.00274729
-0.000319783
0.052744
-0.0020113
-0.000314809
0.0521399
-0.00102162
-0.000325067
0.051864
-0.000626788
-0.000346049
0.0526528
-0.00106615
-0.000365887
0.0530082
-0.000313126
0.0422256
-2.34731e-05
-0.000982117
0.0487254
-0.00286847
-0.00109884
0.058928
-0.00394693
-0.000923978
0.0566822
-0.00336228
-0.000792269
0.0539585
-0.00273929
-0.000765999
0.0529045
-0.00201637
-0.000763498
0.0523073
-0.0010394
-0.000798806
0.0520375
-0.000648378
-0.000877215
0.0528342
-0.0010755
-0.000961345
0.0531938
-0.000824778
0.0423975
5.30845e-05
-0.0015734
0.0487081
-0.00273982
-0.00173259
0.0589938
-0.00384825
-0.00143062
0.0568701
-0.00332328
-0.00120409
0.0542032
-0.002729
-0.00119839
0.0531663
-0.00203301
-0.00120376
0.0525792
-0.00108821
-0.0012756
0.0523196
-0.000712148
-0.00144274
0.0531059
-0.00111816
-0.00161841
0.053417
-0.00136057
0.042551
2.72223e-06
-0.00165811
0.0478185
-0.00265358
-0.00184525
0.0580664
-0.00374452
-0.00153689
0.0561544
-0.00329781
-0.0013441
0.0536827
-0.00275083
-0.00137976
0.0526514
-0.00208845
-0.00139507
0.0520557
-0.0011901
-0.00148199
0.0517793
-0.000817882
-0.00165558
0.0524416
-0.00116948
-0.00180813
0.0525716
-0.00142825
0.0416242
-0.000798939
0.0386416
-0.00314254
0.0472616
-0.0038312
0.0452705
-0.00337296
0.043073
-0.00291231
0.0419934
-0.00229549
0.0413039
-0.00148759
0.0409315
-0.00105151
0.0413231
-0.00113633
0.0412598
0.0315354
-0.0029848
0.00136769
0.0399972
-0.00442075
0.00134492
0.0470951
-0.00431226
0.00131799
0.0436051
-0.00448932
0.00137506
0.0416564
-0.00438232
0.00127497
0.0403891
-0.00400035
0.00127239
0.0394207
-0.0035025
0.00124521
0.0389505
-0.00248732
0.00121047
0.0388305
-0.00159507
0.00121241
0.0388477
0.00114675
0.0284534
-0.00317813
0.00147658
0.05067
-0.00425361
0.00135671
0.0589046
-0.00376486
0.00130464
0.0554786
-0.00404663
0.00137433
0.0537943
-0.00425846
0.0013026
0.0526616
-0.00418287
0.00129823
0.0517752
-0.00396929
0.00129403
0.0513282
-0.00307879
0.00125341
0.0512874
-0.00215413
0.00125567
0.0513442
0.00119924
0.0391211
-0.00341468
0.00108137
0.0523543
-0.00438138
0.00101205
0.0601408
-0.00376285
0.00100768
0.056408
-0.00402476
0.00102343
0.0546976
-0.00425498
0.00097663
0.0536012
-0.00419211
0.000971377
0.0527199
-0.00394488
0.000980552
0.0522566
-0.00298712
0.000976354
0.0522703
-0.00207206
0.000992259
0.0525769
0.000930307
0.0405219
-0.00356347
0.000633736
0.0526394
-0.0045312
0.000604976
0.0602035
-0.00384438
0.00059797
0.0563192
-0.0040812
0.00059515
0.0545495
-0.00428393
0.000574426
0.0534343
-0.00419541
0.000572817
0.0525408
-0.00391728
0.00058221
0.0520773
-0.00291354
0.000589147
0.0521231
-0.00200858
0.000607057
0.0525596
0.000570842
0.0406128
-0.00362984
0.000156325
0.0527062
-0.00459633
0.000146364
0.0601978
-0.00389164
0.000148993
0.0562591
-0.00411627
0.000148318
0.0544551
-0.00429984
0.000150632
0.0533252
-0.00419418
0.000153752
0.0524266
-0.0039018
0.000157273
0.0519684
-0.00288328
0.000158545
0.0520328
-0.00198041
0.000162566
0.0525131
0.00017772
0.0405962
-0.00363343
-0.000333457
0.052751
-0.00459813
-0.000325021
0.0602389
-0.00389057
-0.000311401
0.0562965
-0.00411399
-0.000309286
0.0544907
-0.00429656
-0.000284097
0.0533612
-0.00418988
-0.00027664
0.0524636
-0.00389619
-0.000279771
0.0520074
-0.00287672
-0.00028518
0.0520771
-0.00197559
-0.000295724
0.0525654
-0.00022728
0.040655
-0.00357682
-0.000810991
0.0527797
-0.00453984
-0.000761302
0.0603273
-0.0038407
-0.000757459
0.0564291
-0.00407481
-0.000773074
0.0546564
-0.00427522
-0.000723553
0.0535444
-0.00418359
-0.000714032
0.0526531
-0.00390136
-0.000718999
0.0521945
-0.00289084
-0.000715277
0.0522537
-0.00199111
-0.00072247
0.0527208
-0.000627233
0.0408064
-0.00343838
-0.00127157
0.052607
-0.00439551
-0.00116051
0.0603502
-0.00375733
-0.00111204
0.0565865
-0.00401387
-0.00118489
0.0548715
-0.00424161
-0.00111106
0.0537815
-0.00417436
-0.00110409
0.052902
-0.00392006
-0.00109771
0.052444
-0.00295279
-0.00105637
0.0524797
-0.00204181
-0.00105153
0.052835
-0.000957204
0.0408391
-0.00321576
-0.00125783
0.0510206
-0.00427013
-0.00123488
0.0591951
-0.00375186
-0.00120869
0.0557327
-0.00402791
-0.00127073
0.0540446
-0.00424035
-0.00117117
0.052924
-0.00416178
-0.00116779
0.0520408
-0.0039397
-0.00113947
0.051599
-0.00303932
-0.00110291
0.0515878
-0.0021201
-0.00110086
0.0517017
-0.00101769
0.0395646
-0.00303782
0.0404216
-0.00444961
0.0474385
-0.00430549
0.0439177
-0.00447273
0.0419695
-0.0043631
0.0407126
-0.00397714
0.0397501
-0.00347468
0.0392896
-0.00246071
0.0392062
-0.00157108
0.0392693
0.0289466
-0.00426364
0.0028482
0.0414126
-0.00784077
0.00263225
0.04804
-0.00744809
0.00172597
0.0414864
-0.00631591
0.00104205
0.0394822
-0.00512957
0.00103465
0.0381682
-0.00357699
0.00101632
0.0368518
-0.00164073
0.00102794
0.0359863
0.000266554
0.00145687
0.0354663
0.000374053
0.00221671
0.0365235
0.00220111
0.0266263
-0.00381623
0.00249376
0.0548407
-0.0074545
0.00239592
0.0627792
-0.00712624
0.00180187
0.0550745
-0.00606978
0.00123308
0.0525469
-0.00508713
0.00112884
0.0515848
-0.0036608
0.00110257
0.0502626
-0.001714
0.00115889
0.0492504
0.000237487
0.00148939
0.0493034
0.0003678
0.00193967
0.051491
0.00187938
0.0398106
-0.00417865
0.0015062
0.0575205
-0.00793303
0.00156784
0.0647232
-0.00738463
0.00130699
0.0563545
-0.00610163
0.00100303
0.0536446
-0.0050759
0.000909175
0.0527952
-0.00360572
0.000888511
0.0514638
-0.00150802
0.000937536
0.0503802
0.00059
0.00110025
0.0505614
0.000586878
0.00124721
0.0532724
0.00111413
0.041874
-0.00442692
0.000800593
0.0577719
-0.00827404
0.000845501
0.0647729
-0.00760231
0.000749312
0.0562052
-0.0061976
0.00062827
0.0535196
-0.00510734
0.000577679
0.0526755
-0.0035766
0.000568233
0.0513303
-0.00138871
0.000594158
0.0502328
0.000806895
0.000660353
0.0503674
0.000732757
0.000702779
0.0531782
0.000637587
0.0418221
-0.00451714
0.000201637
0.0578223
-0.00840204
0.000200504
0.0647277
-0.00770401
0.000197992
0.0561124
-0.00625138
0.000195577
0.0534351
-0.00512532
0.00019414
0.0525827
-0.00356024
0.000197493
0.0512323
-0.00133417
0.000206277
0.0501302
0.000888862
0.000224639
0.0502455
0.000781884
0.000243186
0.0530797
0.000259318
0.0417564
-0.00452597
-0.000408308
0.0578869
-0.00840934
-0.000458243
0.064781
-0.00770932
-0.000365383
0.0561598
-0.00625112
-0.00024916
0.0534772
-0.00512251
-0.00020277
0.0526295
-0.00355346
-0.000187267
0.0512793
-0.0013195
-0.000195974
0.0501757
0.000904288
-0.000226874
0.0503048
0.000791047
-0.000236521
0.0531583
-0.000146062
0.0418515
-0.00445828
-0.00115056
0.0579803
-0.00830728
-0.00121925
0.0649373
-0.00762038
-0.000966969
0.0563438
-0.00619677
-0.0006717
0.0536553
-0.00509943
-0.000581883
0.0528262
-0.00355666
-0.000557378
0.0514804
-0.00134358
-0.000592073
0.0503775
0.00086183
-0.000724565
0.050546
0.000767365
-0.000840829
0.0534196
-0.000689847
0.0421175
-0.00423216
-0.0021963
0.0578849
-0.00798933
-0.0021219
0.06501
-0.00741428
-0.00154075
0.0565853
-0.00610038
-0.000980541
0.0538665
-0.00506372
-0.000878555
0.0530415
-0.00357512
-0.000850729
0.0517068
-0.00143681
-0.000898922
0.0506125
0.000678184
-0.00120639
0.0508465
0.000649889
-0.00163637
0.0536589
-0.00156779
0.042367
-0.00387621
-0.00270143
0.0554019
-0.0075241
-0.00249724
0.0632183
-0.00716223
-0.00159493
0.0554251
-0.00606215
-0.000906229
0.0528702
-0.00506877
-0.000898997
0.0519511
-0.00362349
-0.000877486
0.0506223
-0.00162907
-0.000881324
0.049587
0.000340326
-0.00131253
0.0497245
0.00043515
-0.0020711
0.0520416
-0.00207894
0.0405109
-0.00427977
0.0419999
-0.00788707
0.0485486
-0.00747372
0.0419095
-0.00630304
0.0398926
-0.00510274
0.0386133
-0.00352868
0.0372986
-0.00154029
0.0364199
0.000396591
0.0359568
0.000456938
0.0371379
0.0273246
-0.0111607
0.00361545
0.0489579
-0.0118468
0.00206578
0.0466602
-0.00877731
0.000791058
0.0376259
-0.0078094
0.000825775
0.0376885
-0.00659838
0.000936383
0.0360207
-0.00535887
0.000930306
0.0346819
-0.00423897
0.000753863
0.0341125
-0.00197702
0.000672817
0.0325316
-0.00032959
0.00148329
0.0333928
0.00246532
0.0238314
-0.0105688
0.00242462
0.0666003
-0.0113332
0.00167294
0.0639364
-0.00797697
0.000982397
0.0515269
-0.00727796
0.00100834
0.0516653
-0.00649019
0.000989157
0.0507442
-0.00558425
0.000972293
0.0493147
-0.00449381
0.000925353
0.0479885
-0.00163521
0.000872405
0.0462452
-0.000354602
0.00124387
0.0504498
0.00162308
0.0402982
-0.0113602
0.00152671
0.0697785
-0.0119397
0.0012114