/*--------------------------------*- C++ -*----------------------------------*\
| =========                 |                                                 |
| \\      /  F ield         | OpenFOAM: The Open Source CFD Toolbox           |
|  \\    /   O peration     | Version:  1.7.x                                 |
|   \\  /    A nd           | Web:      www.OpenFOAM.com                      |
|    \\/     M anipulation  |                                                 |
\*---------------------------------------------------------------------------*/
FoamFile
{
    version     2.0;
    format      ascii;
    class       volVectorField;
    location    "0.2";
    object      U;
}
// * * * * * * * * * * * * * * * * * * * * * * * * * * * * * * * * * * * * * //

dimensions      [0 1 -1 0 0 0 0];

internalField   nonuniform List<vector> 
8000
(
(4.71877 0.0337706 0.043976)
(4.82915 0.0299306 0.0393955)
(4.87745 -0.00678304 0.039594)
(4.88855 -0.00550414 0.0411624)
(4.89476 -0.0121606 0.0404844)
(4.89643 -0.0125906 0.0405933)
(4.89393 -0.0147582 0.0406588)
(4.88498 -0.018987 0.0404118)
(4.86607 -0.0483347 0.0413205)
(4.77078 -0.0381387 0.0421391)
(4.7335 0.0361415 0.0622756)
(4.86313 0.0221581 0.0555715)
(4.96082 -0.0233671 0.0560361)
(4.98027 -0.00711267 0.0581006)
(4.99071 -0.012539 0.0572104)
(4.99459 -0.00791567 0.0574528)
(4.99062 -0.00549185 0.0576192)
(4.97269 -0.00234325 0.0573325)
(4.93046 -0.0326697 0.0588467)
(4.82381 -0.0326023 0.0599907)
(4.7212 0.036089 0.0272881)
(4.85387 0.020527 0.0250443)
(4.95869 -0.0258199 0.0251004)
(4.97923 -0.00735847 0.0255007)
(4.9902 -0.0126572 0.0251732)
(4.99441 -0.00710155 0.0252995)
(4.99033 -0.00390764 0.0254495)
(4.97118 0.000774878 0.0255557)
(4.92542 -0.0294768 0.0263983)
(4.81656 -0.0313705 0.0268206)
(4.72066 0.0356589 0.0131011)
(4.85371 0.0199664 0.0125461)
(4.9584 -0.0257728 0.0126227)
(4.97885 -0.00729676 0.0126814)
(4.98981 -0.0126673 0.012584)
(4.99397 -0.00699959 0.0126668)
(4.98988 -0.00380246 0.0127845)
(4.97078 0.00108087 0.0128762)
(4.92499 -0.0290208 0.0132008)
(4.81602 -0.0311767 0.0132411)
(4.72068 0.0355274 0.00433078)
(4.85372 0.0197438 0.00420934)
(4.95833 -0.0257706 0.00432888)
(4.97868 -0.00728139 0.0043505)
(4.98962 -0.0126701 0.0043149)
(4.99376 -0.00696147 0.00435819)
(4.98967 -0.00376883 0.00441485)
(4.9706 0.00117786 0.0044386)
(4.92484 -0.0289179 0.00452028)
(4.81591 -0.0311464 0.00448291)
(4.7203 0.0355656 -0.00335404)
(4.85337 0.0196906 -0.003377)
(4.95833 -0.0258829 -0.00314418)
(4.9787 -0.00728915 -0.0030888)
(4.98963 -0.0126657 -0.00307377)
(4.99377 -0.00692384 -0.00306258)
(4.98968 -0.00370111 -0.00306826)
(4.97055 0.00132045 -0.00312469)
(4.92459 -0.0288278 -0.00321552)
(4.8156 -0.0311199 -0.00324278)
(4.71955 0.0357666 -0.0121757)
(4.85271 0.0198124 -0.0117458)
(4.95842 -0.0260908 -0.0115204)
(4.9789 -0.00731963 -0.0115144)
(4.98982 -0.0126527 -0.011439)
(4.99401 -0.00688832 -0.0114731)
(4.98992 -0.00360244 -0.0115441)
(4.97065 0.00149876 -0.0116647)
(4.9243 -0.028754 -0.0119959)
(4.8151 -0.0310967 -0.0120955)
(4.71938 0.0362608 -0.0264605)
(4.85228 0.0202758 -0.0243173)
(4.95869 -0.0263321 -0.0241585)
(4.97931 -0.00740133 -0.0245226)
(4.99022 -0.0126372 -0.0242168)
(4.99447 -0.00692698 -0.0243011)
(4.99039 -0.00359287 -0.0244039)
(4.97099 0.00143202 -0.0245185)
(4.92434 -0.0290593 -0.0253566)
(4.8151 -0.0312463 -0.0258381)
(4.7311 0.0363468 -0.0617379)
(4.86108 0.0218751 -0.0549427)
(4.96077 -0.0240053 -0.0554263)
(4.98035 -0.00717101 -0.0574993)
(4.99075 -0.0125122 -0.0566125)
(4.99467 -0.00768797 -0.0568329)
(4.99068 -0.00508924 -0.0569607)
(4.97242 -0.00152247 -0.0566325)
(4.92907 -0.032105 -0.0581342)
(4.82193 -0.0324205 -0.0593592)
(4.71721 0.0338281 -0.043819)
(4.82774 0.0296081 -0.0390987)
(4.87731 -0.00721364 -0.0394106)
(4.88854 -0.00551616 -0.0409962)
(4.89478 -0.0121376 -0.0403112)
(4.89648 -0.0124274 -0.0404182)
(4.89394 -0.0144833 -0.0404714)
(4.88477 -0.0184611 -0.0401865)
(4.86517 -0.0478755 -0.0410884)
(4.76968 -0.0379683 -0.0419531)
(4.80603 0.079517 0.0812217)
(4.97633 0.116297 0.0914852)
(4.87702 0.0486035 0.0884246)
(4.84809 -0.00846561 0.0847292)
(4.83547 -0.0326404 0.0849971)
(4.8298 -0.0573098 0.0847901)
(4.83435 -0.0797774 0.085079)
(4.85743 -0.11256 0.0867234)
(4.90961 -0.163981 0.0874779)
(4.70966 -0.0981901 0.0833777)
(5.13088 0.0686584 0.119473)
(5.27661 0.116381 0.132815)
(5.10548 0.0704026 0.129256)
(5.06862 -0.0102445 0.124304)
(5.05296 -0.0350012 0.124432)
(5.04347 -0.0665142 0.124042)
(5.04885 -0.0959365 0.124457)
(5.08464 -0.139374 0.12691)
(5.17338 -0.189004 0.127972)
(4.99235 -0.109185 0.122881)
(5.13013 0.0667087 0.0617352)
(5.2725 0.116255 0.0654897)
(5.08908 0.0731021 0.0649725)
(5.05135 -0.0114088 0.0634688)
(5.0355 -0.0354029 0.0635213)
(5.02541 -0.0679045 0.0634657)
(5.03078 -0.0979892 0.0637886)
(5.06838 -0.14295 0.0648049)
(5.16286 -0.192857 0.0653975)
(4.98636 -0.111201 0.0638141)
(5.12263 0.0669829 0.0333841)
(5.26561 0.116642 0.0342493)
(5.08163 0.0727648 0.0340258)
(5.04379 -0.0118941 0.0337951)
(5.02796 -0.0354634 0.0337794)
(5.01793 -0.0678479 0.0337858)
(5.02338 -0.0976569 0.0339475)
(5.06107 -0.142603 0.0343367)
(5.15562 -0.193012 0.0346083)
(4.9788 -0.111456 0.0342004)
(5.1201 0.0671002 0.0119818)
(5.26353 0.116897 0.0121795)
(5.07945 0.0726704 0.011946)
(5.0416 -0.0120716 0.0118755)
(5.02579 -0.0354556 0.0118849)
(5.0158 -0.0677398 0.0118792)
(5.02131 -0.0974061 0.011936)
(5.05901 -0.142355 0.012121)
(5.15349 -0.192931 0.0122878)
(4.97635 -0.111481 0.0122259)
(5.12072 0.0669715 -0.00795174)
(5.26412 0.11691 -0.00801791)
(5.0795 0.0728497 -0.00846786)
(5.04166 -0.01207 -0.00852353)
(5.0259 -0.0354522 -0.00850314)
(5.01591 -0.0677623 -0.00854094)
(5.0214 -0.0974575 -0.00859127)
(5.05919 -0.142503 -0.00853987)
(5.15396 -0.192976 -0.00840119)
(4.97701 -0.111492 -0.00822451)
(5.12441 0.0666105 -0.0297452)
(5.26727 0.116678 -0.030501)
(5.08174 0.0732717 -0.0308493)
(5.04392 -0.0118862 -0.0307315)
(5.02824 -0.0354541 -0.0306773)
(5.0182 -0.0679144 -0.0307203)
(5.02363 -0.0978096 -0.0308753)
(5.06154 -0.143034 -0.0310509)
(5.1569 -0.193149 -0.0310493)
(4.98068 -0.111492 -0.0305324)
(5.13303 0.0661204 -0.0587984)
(5.27509 0.116338 -0.0624555)
(5.08925 0.0739265 -0.0623258)
(5.05154 -0.0113872 -0.0608957)
(5.03592 -0.03538 -0.0609069)
(5.0258 -0.0680091 -0.0608819)
(5.03112 -0.0982326 -0.0612063)
(5.06906 -0.143636 -0.0620983)
(5.16483 -0.19307 -0.0625006)
(4.9893 -0.111251 -0.0607987)
(5.13483 0.0679076 -0.117653)
(5.28008 0.116409 -0.13105)
(5.10582 0.0714521 -0.127673)
(5.0689 -0.0102162 -0.122633)
(5.05351 -0.0349689 -0.122724)
(5.04398 -0.0666462 -0.122336)
(5.04933 -0.0962644 -0.122759)
(5.08561 -0.140262 -0.125237)
(5.17603 -0.189366 -0.126257)
(4.99629 -0.109306 -0.120985)
(4.80926 0.0792063 -0.0806715)
(4.97926 0.116491 -0.0910689)
(4.87794 0.0492548 -0.0880074)
(4.84879 -0.00841353 -0.0841915)
(4.83624 -0.0325436 -0.0844457)
(4.83052 -0.0573036 -0.0842249)
(4.83513 -0.0798813 -0.0845169)
(4.85864 -0.113027 -0.086227)
(4.91197 -0.164355 -0.0870148)
(4.71271 -0.0983739 -0.0827945)
(4.31129 0.0904267 0.093534)
(4.70615 0.0910555 0.0919442)
(4.76217 -0.015565 0.0970888)
(4.74926 -0.0288235 0.102362)
(4.74106 -0.0617707 0.10302)
(4.7377 -0.0767389 0.10373)
(4.73598 -0.0884601 0.103482)
(4.73376 -0.0983237 0.101046)
(4.71425 -0.14563 0.0997679)
(4.339 -0.0942974 0.097036)
(4.54713 0.120177 0.142554)
(4.99525 0.11159 0.143164)
(5.12209 -0.0327125 0.147841)
(5.11102 -0.0241569 0.153289)
(5.10548 -0.0575117 0.154384)
(5.10731 -0.0677106 0.15562)
(5.10719 -0.0735115 0.155924)
(5.09407 -0.0745221 0.153616)
(5.03201 -0.132469 0.153034)
(4.60331 -0.0908435 0.147484)
(4.50045 0.124785 0.0813677)
(4.95666 0.114366 0.0841472)
(5.09399 -0.034826 0.0844975)
(5.08226 -0.022531 0.0856462)
(5.07693 -0.0567994 0.0858422)
(5.07965 -0.066045 0.08648)
(5.08021 -0.0711398 0.0870737)
(5.06613 -0.0702544 0.0870463)
(4.99786 -0.129139 0.0875015)
(4.55908 -0.0894252 0.0840442)
(4.48005 0.125453 0.0470438)
(4.93764 0.114328 0.0497134)
(5.07596 -0.035359 0.049654)
(5.06446 -0.0222858 0.049324)
(5.05929 -0.0567232 0.0493023)
(5.06204 -0.0656763 0.0496241)
(5.06251 -0.0707074 0.0501428)
(5.04824 -0.0695171 0.050574)
(4.97939 -0.128635 0.0508601)
(4.53911 -0.089436 0.0486349)
(4.47345 0.125768 0.017284)
(4.93125 0.114233 0.0183516)
(5.06993 -0.0357303 0.0185741)
(5.05849 -0.02229 0.0184052)
(5.05337 -0.056724 0.01838)
(5.05609 -0.0654938 0.0185404)
(5.05652 -0.0704574 0.0187844)
(5.04219 -0.0691567 0.0189315)
(4.97319 -0.128578 0.018911)
(4.53264 -0.0896015 0.0180373)
(4.47343 0.125945 -0.0122916)
(4.9313 0.114263 -0.0130081)
(5.07041 -0.0359321 -0.0124196)
(5.0589 -0.0223049 -0.0122678)
(5.05371 -0.0566754 -0.0122067)
(5.05645 -0.0653907 -0.0121617)
(5.05694 -0.0703007 -0.0121963)
(5.04259 -0.0688902 -0.0123893)
(4.97334 -0.128515 -0.0126389)
(4.53256 -0.0896247 -0.0121577)
(4.47996 0.125965 -0.0424398)
(4.93775 0.114415 -0.0447838)
(5.07732 -0.0359294 -0.044066)
(5.06562 -0.0223308 -0.0437285)
(5.06026 -0.056581 -0.0436832)
(5.06305 -0.065377 -0.0438191)
(5.06369 -0.0702528 -0.0441498)
(5.04939 -0.0687516 -0.044626)
(4.97982 -0.128449 -0.0451487)
(4.53884 -0.0894957 -0.0432846)
(4.50009 0.125589 -0.0774015)
(4.95679 0.114467 -0.0799726)
(5.09605 -0.0357432 -0.0798465)
(5.08405 -0.022588 -0.0809756)
(5.07843 -0.0565806 -0.0811471)
(5.08121 -0.065575 -0.0816269)
(5.08204 -0.0704303 -0.0820613)
(5.06793 -0.0690485 -0.082016)
(4.99854 -0.128845 -0.082636)
(4.55862 -0.0895229 -0.0794748)
(4.54629 0.121247 -0.139837)
(4.99508 0.111866 -0.140364)
(5.12462 -0.033861 -0.144807)
(5.11337 -0.0241938 -0.150267)
(5.10748 -0.0572204 -0.151355)
(5.10939 -0.0671036 -0.152508)
(5.10956 -0.0725785 -0.152712)
(5.09631 -0.0729581 -0.150307)
(5.0327 -0.131959 -0.149759)
(4.60239 -0.0908371 -0.144365)
(4.31128 0.0909848 -0.0925631)
(4.70639 0.0910019 -0.0908816)
(4.76464 -0.016307 -0.0960539)
(4.75176 -0.0287149 -0.101386)
(4.74349 -0.0615086 -0.102046)
(4.74029 -0.0761975 -0.102743)
(4.73872 -0.0876818 -0.102463)
(4.73629 -0.0970735 -0.0999276)
(4.71558 -0.14477 -0.0986004)
(4.33945 -0.0939239 -0.0959226)
(4.52329 0.0418234 0.0906882)
(4.90953 0.0658125 0.102861)
(4.73877 0.0108802 0.0995745)
(4.66488 -0.0744821 0.0960095)
(4.61943 -0.106444 0.0959927)
(4.59474 -0.137463 0.0960806)
(4.59979 -0.160739 0.0966074)
(4.6473 -0.189445 0.0997598)
(4.73315 -0.217483 0.102112)
(4.27406 -0.119199 0.0945942)
(5.13353 0.0164537 0.137635)
(5.48237 0.0624417 0.149647)
(5.24311 0.0469607 0.149774)
(5.17823 -0.0693393 0.148164)
(5.13612 -0.111141 0.147805)
(5.10866 -0.151798 0.147976)
(5.1104 -0.188454 0.148223)
(5.16705 -0.231596 0.151027)
(5.3018 -0.248861 0.152797)
(4.88906 -0.13263 0.146298)
(5.12895 0.00994141 0.0831137)
(5.46655 0.0588032 0.08677)
(5.21567 0.0496513 0.0883907)
(5.15236 -0.0706818 0.0883963)
(5.10974 -0.111951 0.0885563)
(5.0817 -0.153415 0.0888829)
(5.08305 -0.190703 0.0893976)
(5.14134 -0.235035 0.0907577)
(5.28443 -0.250454 0.0918567)
(4.88581 -0.133015 0.0891147)
(5.10866 0.00880346 0.0528855)
(5.4449 0.0586915 0.0536843)
(5.19234 0.0500524 0.0547076)
(5.12775 -0.0715662 0.0555895)
(5.08416 -0.112275 0.0557081)
(5.0559 -0.153533 0.0558741)
(5.05775 -0.19044 0.0560863)
(5.11718 -0.234832 0.0564194)
(5.26187 -0.25045 0.056766)
(4.86409 -0.132985 0.0555466)
(5.10078 0.00835568 0.0214356)
(5.43695 0.0587579 0.0213679)
(5.18337 0.0502913 0.0215135)
(5.118 -0.0719874 0.0218713)
(5.07392 -0.112398 0.0219323)
(5.04556 -0.153479 0.021965)
(5.04768 -0.190166 0.022032)
(5.10773 -0.234642 0.0222046)
(5.2532 -0.250369 0.0225042)
(4.8552 -0.132928 0.0223932)
(5.10189 0.00811288 -0.0119493)
(5.43787 0.058712 -0.0125535)
(5.18382 0.0505944 -0.0132679)
(5.11853 -0.0718901 -0.013401)
(5.07454 -0.112378 -0.0134021)
(5.04622 -0.153467 -0.0134887)
(5.04832 -0.190217 -0.0135904)
(5.10844 -0.234817 -0.0135659)
(5.25422 -0.250253 -0.0132523)
(4.85665 -0.132743 -0.0122721)
(5.11192 0.00809896 -0.0443558)
(5.44757 0.0585765 -0.0457591)
(5.19368 0.0509341 -0.0471884)
(5.12929 -0.0712721 -0.0478954)
(5.08597 -0.112209 -0.047936)
(5.05782 -0.153498 -0.0481434)
(5.05959 -0.190586 -0.0483817)
(5.11919 -0.235327 -0.0485276)
(5.26474 -0.250131 -0.0483284)
(4.86823 -0.132466 -0.0462954)
(5.13426 0.00883563 -0.0760999)
(5.4707 0.0586603 -0.0801385)
(5.21781 0.0510686 -0.0820839)
(5.15476 -0.070233 -0.0819408)
(5.11257 -0.111831 -0.0820404)
(5.0847 -0.153358 -0.0824025)
(5.08594 -0.190925 -0.0829418)
(5.14447 -0.235819 -0.0842075)
(5.2889 -0.249947 -0.0848634)
(4.89226 -0.132182 -0.0814607)
(5.14111 0.0149363 -0.132995)
(5.48842 0.0620196 -0.145032)
(5.2462 0.0487263 -0.145543)
(5.18151 -0.0687872 -0.143871)
(5.13996 -0.110996 -0.143444)
(5.1127 -0.15173 -0.143614)
(5.11436 -0.188757 -0.143844)
(5.17143 -0.232593 -0.146574)
(5.30815 -0.248325 -0.148073)
(4.89834 -0.131777 -0.141301)
(4.5318 0.0408218 -0.0891228)
(4.91682 0.0656996 -0.101308)
(4.7435 0.0120528 -0.0981498)
(4.66953 -0.0742512 -0.0945251)
(4.62426 -0.106215 -0.0944723)
(4.5996 -0.137229 -0.0945383)
(4.60478 -0.160639 -0.0950418)
(4.65296 -0.189873 -0.098199)
(4.74074 -0.217318 -0.10051)
(4.28432 -0.119022 -0.0929839)
(3.86183 0.0880225 0.08806)
(4.59277 0.0180036 0.0926184)
(4.66266 -0.141652 0.0897295)
(4.60273 -0.126893 0.0910176)
(4.55649 -0.150567 0.092858)
(4.5367 -0.148248 0.0938137)
(4.5329 -0.134788 0.09484)
(4.52774 -0.114974 0.0941902)
(4.4438 -0.146808 0.0957538)
(3.70815 -0.0896997 0.0887245)
(4.40646 0.125988 0.144921)
(5.22557 0.0434922 0.159102)
(5.36027 -0.166538 0.147312)
(5.2796 -0.131627 0.142926)
(5.23228 -0.142582 0.145451)
(5.21597 -0.136773 0.146985)
(5.22055 -0.11145 0.15046)
(5.21404 -0.0803504 0.154538)
(5.0833 -0.134057 0.16134)
(4.2403 -0.0920022 0.14429)
(4.39463 0.130434 0.0933726)
(5.22353 0.0427123 0.103726)
(5.36485 -0.173838 0.095155)
(5.27655 -0.133051 0.0912206)
(5.22883 -0.142067 0.090997)
(5.21277 -0.134465 0.0917877)
(5.21974 -0.106864 0.0943086)
(5.21546 -0.0724811 0.0978331)
(5.0797 -0.127277 0.1021)
(4.22209 -0.0894089 0.0923878)
(4.37244 0.131376 0.0611744)
(5.20149 0.0397888 0.0679112)
(5.34102 -0.178791 0.0636219)
(5.25109 -0.134542 0.0603716)
(5.20294 -0.142624 0.0596888)
(5.18667 -0.133713 0.0600553)
(5.19388 -0.104977 0.0616831)
(5.19007 -0.0693826 0.0642191)
(5.0544 -0.124761 0.0663839)
(4.19477 -0.0888211 0.0606861)
(4.36362 0.131983 0.0250317)
(5.19178 0.0383577 0.0276398)
(5.33027 -0.181564 0.0262291)
(5.23972 -0.135519 0.0249617)
(5.19124 -0.14298 0.0246857)
(5.17482 -0.133315 0.0249104)
(5.1821 -0.103901 0.0256497)
(5.17852 -0.0676863 0.0267092)
(5.04314 -0.123757 0.0273867)
(4.18345 -0.0888552 0.025148)
(4.36486 0.132187 -0.0135288)
(5.19293 0.0383414 -0.0150094)
(5.33169 -0.182015 -0.0136478)
(5.24095 -0.135704 -0.0128386)
(5.19233 -0.1429 -0.0124911)
(5.17588 -0.133113 -0.0123218)
(5.18329 -0.103509 -0.0123958)
(5.17986 -0.0671145 -0.012759)
(5.04439 -0.123575 -0.0134303)
(4.18459 -0.0890481 -0.0123839)
(4.37585 0.131992 -0.0506488)
(5.2047 0.0397265 -0.0563502)
(5.34509 -0.180113 -0.0522231)
(5.25464 -0.135075 -0.0493112)
(5.20608 -0.142397 -0.048568)
(5.18969 -0.133127 -0.0485738)
(5.1973 -0.103853 -0.0496027)
(5.19396 -0.0677663 -0.0515298)
(5.05808 -0.124224 -0.0536897)
(4.19808 -0.0893628 -0.0491652)
(4.39963 0.131413 -0.0846402)
(5.22856 0.0426166 -0.0942854)
(5.37122 -0.175881 -0.0857285)
(5.2822 -0.133805 -0.0820333)
(5.23385 -0.141704 -0.0817041)
(5.21759 -0.133543 -0.0821846)
(5.22519 -0.105133 -0.0842311)
(5.2216 -0.0699679 -0.0872237)
(5.08549 -0.126477 -0.0915229)
(4.22733 -0.0903031 -0.082759)
(4.41238 0.127382 -0.139337)
(5.2317 0.0437084 -0.153532)
(5.36872 -0.168978 -0.141296)
(5.28731 -0.132525 -0.136832)
(5.2392 -0.142066 -0.139338)
(5.22269 -0.135601 -0.140689)
(5.22799 -0.109273 -0.143941)
(5.22219 -0.0772274 -0.14786)
(5.09055 -0.133009 -0.15473)
(4.24613 -0.0928252 -0.137934)
(3.86864 0.0888445 -0.0861709)
(4.59991 0.0175051 -0.0908722)
(4.6717 -0.143625 -0.0876672)
(4.61129 -0.127282 -0.0888793)
(4.5647 -0.150046 -0.0907561)
(4.54512 -0.147029 -0.0916717)
(4.54194 -0.132817 -0.0926682)
(4.53716 -0.112148 -0.0920259)
(4.45238 -0.145193 -0.0935888)
(3.71479 -0.0893254 -0.0863051)
(4.31875 -0.0267644 0.0785755)
(4.8691 -0.034979 0.0856446)
(4.66736 -0.0943251 0.0945098)
(4.55157 -0.209585 0.0981194)
(4.46604 -0.23853 0.0957676)
(4.41302 -0.244579 0.0967655)
(4.40272 -0.249722 0.097046)
(4.45292 -0.262723 0.097808)
(4.52711 -0.251963 0.0992593)
(3.83142 -0.125401 0.100422)
(5.19209 -0.0410307 0.124427)
(5.70859 -0.0387576 0.12542)
(5.45011 -0.0489074 0.143023)
(5.37628 -0.176125 0.154063)
(5.29966 -0.236271 0.150187)
(5.25384 -0.254233 0.151588)
(5.2389 -0.285455 0.150792)
(5.29257 -0.317407 0.146655)
(5.42692 -0.289752 0.143524)
(4.78525 -0.131947 0.152093)
(5.242 -0.051625 0.0899874)
(5.73331 -0.0463456 0.0866365)
(5.46769 -0.0441273 0.0952135)
(5.40226 -0.175267 0.0993975)
(5.32355 -0.237201 0.0978033)
(5.27884 -0.254196 0.0986121)
(5.26354 -0.286673 0.0992815)
(5.317 -0.319915 0.0990102)
(5.46077 -0.288419 0.0995734)
(4.84457 -0.12821 0.103056)
(5.23238 -0.0562809 0.0637548)
(5.71619 -0.049113 0.0613593)
(5.44969 -0.0438775 0.0633945)
(5.38238 -0.177952 0.0649694)
(5.30115 -0.239047 0.0641607)
(5.25601 -0.254662 0.0643631)
(5.24124 -0.286324 0.0647396)
(5.29621 -0.319208 0.0648904)
(5.44295 -0.286662 0.0661987)
(4.83426 -0.126191 0.0667026)
(5.22733 -0.058823 0.0281506)
(5.70925 -0.0508872 0.0267645)
(5.44195 -0.0440592 0.0272012)
(5.37312 -0.179431 0.027638)
(5.29072 -0.240005 0.0273763)
(5.24538 -0.254809 0.0274282)
(5.23096 -0.285932 0.0275439)
(5.28688 -0.31848 0.027622)
(5.43519 -0.285325 0.02846)
(4.82852 -0.124915 0.0293591)
(5.22925 -0.059198 -0.0111879)
(5.71104 -0.0511616 -0.0113747)
(5.44334 -0.0437444 -0.0115151)
(5.37454 -0.179228 -0.0116857)
(5.29225 -0.239969 -0.0114153)
(5.24706 -0.254693 -0.0114223)
(5.23265 -0.285926 -0.0116087)
(5.28861 -0.318578 -0.0119228)
(5.43733 -0.285126 -0.012058)
(4.83109 -0.124434 -0.0104481)
(5.23829 -0.0574194 -0.0485152)
(5.7215 -0.0498468 -0.0475188)
(5.45374 -0.0428621 -0.049061)
(5.38648 -0.177375 -0.0504133)
(5.30555 -0.238938 -0.0495832)
(5.26085 -0.25434 -0.0497269)
(5.2461 -0.286309 -0.0501635)
(5.30114 -0.319485 -0.0505577)
(5.44906 -0.286152 -0.0513)
(4.84171 -0.124831 -0.0493489)
(5.2519 -0.053409 -0.0773262)
(5.74181 -0.0474462 -0.0749509)
(5.47422 -0.0424887 -0.0832369)
(5.40878 -0.174395 -0.0871161)
(5.33057 -0.237002 -0.0855128)
(5.28657 -0.253673 -0.0862608)
(5.27133 -0.286642 -0.086981)
(5.32501 -0.320412 -0.0870025)
(5.47064 -0.287615 -0.0870754)
(4.85635 -0.126008 -0.0884401)
(5.20649 -0.0433933 -0.115721)
(5.72061 -0.0404555 -0.116715)
(5.45929 -0.0468752 -0.13475)
(5.38551 -0.17482 -0.145911)
(5.30962 -0.23597 -0.141904)
(5.2647 -0.253525 -0.143259)
(5.24999 -0.285393 -0.142403)
(5.30406 -0.317956 -0.13808)
(5.4412 -0.288657 -0.134406)
(4.80296 -0.129458 -0.141752)
(4.33655 -0.0280757 -0.0751957)
(4.88306 -0.035561 -0.082017)
(4.67925 -0.0925781 -0.0914234)
(4.56368 -0.208783 -0.0952143)
(4.47852 -0.238069 -0.0927057)
(4.42594 -0.243672 -0.0936655)
(4.41598 -0.249013 -0.093833)
(4.46716 -0.262594 -0.0942541)
(4.54439 -0.250683 -0.0953327)
(3.85521 -0.123904 -0.0965813)
(3.52144 0.0223175 0.117066)
(4.55199 -0.158619 0.131951)
(4.55455 -0.395246 0.11304)
(4.39066 -0.353276 0.101846)
(4.29456 -0.31934 0.10579)
(4.24095 -0.26682 0.107248)
(4.22279 -0.188252 0.11334)
(4.20994 -0.114007 0.123765)
(4.03937 -0.136572 0.130033)
(2.91618 -0.089334 0.0955325)
(4.35201 0.0797844 0.197875)
(5.51152 -0.0749193 0.223296)
(5.59579 -0.380066 0.190596)
(5.39519 -0.355919 0.165309)
(5.30701 -0.301241 0.168462)
(5.25193 -0.252073 0.170257)
(5.24674 -0.160281 0.180419)
(5.24312 -0.0800134 0.202682)
(5.01279 -0.122828 0.223504)
(3.74024 -0.109203 0.183423)
(4.42098 0.0897874 0.138687)
(5.58296 -0.0739608 0.153423)
(5.6647 -0.395503 0.129882)
(5.44591 -0.363299 0.113481)
(5.35938 -0.301088 0.11136)
(5.30321 -0.248222 0.111886)
(5.30128 -0.150856 0.117888)
(5.30647 -0.066712 0.130344)
(5.07724 -0.11382 0.142722)
(3.79221 -0.110152 0.122634)
(4.42614 0.088753 0.089122)
(5.58089 -0.0836063 0.0958409)
(5.65187 -0.409637 0.084243)
(5.42666 -0.370199 0.075185)
(5.33951 -0.303801 0.0726432)
(5.28258 -0.247345 0.0726897)
(5.28127 -0.146138 0.0758135)
(5.28944 -0.058424 0.082281)
(5.06454 -0.106402 0.0889068)
(3.77594 -0.108205 0.0818189)
(4.42833 0.0884987 0.0380338)
(5.57934 -0.0885625 0.0402726)
(5.64546 -0.417234 0.0362649)
(5.41785 -0.373971 0.0332213)
(5.33005 -0.30526 0.032266)
(5.27263 -0.24686 0.0324209)
(5.27155 -0.143576 0.0338187)
(5.28073 -0.0539628 0.0365258)
(5.05727 -0.102822 0.039189)
(3.76698 -0.107596 0.0369574)
(4.43163 0.0887133 -0.0147561)
(5.58165 -0.088593 -0.0171269)
(5.6481 -0.417839 -0.0141228)
(5.42033 -0.374316 -0.0114378)
(5.33242 -0.305147 -0.0104994)
(5.2749 -0.246499 -0.0101317)
(5.27405 -0.142812 -0.0102773)
(5.28369 -0.0528841 -0.010854)
(5.06039 -0.101999 -0.0116467)
(3.77066 -0.107635 -0.0091062)
(4.43587 0.0894149 -0.0676515)
(5.58766 -0.0838059 -0.0744771)
(5.65954 -0.411542 -0.0640441)
(5.43392 -0.371154 -0.0553207)
(5.3464 -0.303486 -0.052751)
(5.28916 -0.246299 -0.0523247)
(5.28852 -0.143944 -0.0543018)
(5.29812 -0.0552901 -0.0587706)
(5.07403 -0.103869 -0.0636665)
(3.78736 -0.108209 -0.0566749)
(4.4359 0.0909835 -0.121041)
(5.59375 -0.074148 -0.135826)
(5.6769 -0.398432 -0.112945)
(5.45748 -0.364711 -0.0968679)
(5.37035 -0.300553 -0.0945818)
(5.31369 -0.24657 -0.0946756)
(5.31275 -0.147427 -0.0997267)
(5.31999 -0.0618375 -0.110523)
(5.09177 -0.11001 -0.121784)
(3.81038 -0.110334 -0.102503)
(4.37146 0.0817453 -0.186588)
(5.52642 -0.0743075 -0.212527)
(5.61284 -0.383296 -0.179768)
(5.41157 -0.357715 -0.154093)
(5.3227 -0.300388 -0.157115)
(5.26706 -0.249917 -0.158588)
(5.26293 -0.156 -0.168247)
(5.26163 -0.0742758 -0.189988)
(5.03165 -0.118589 -0.210549)
(3.76231 -0.109497 -0.171598)
(3.54302 0.0234141 -0.113395)
(4.57331 -0.158641 -0.128538)
(4.57554 -0.39817 -0.10926)
(4.41037 -0.35445 -0.0976107)
(4.31403 -0.318119 -0.101607)
(4.26047 -0.264141 -0.102961)
(4.24362 -0.183553 -0.109004)
(4.23273 -0.107647 -0.119733)
(4.06326 -0.131989 -0.126376)
(2.93918 -0.0890425 -0.0918701)
(4.32105 -0.178192 0.0749495)
(4.72585 -0.355612 0.0842202)
(4.38242 -0.418694 0.0903254)
(4.21379 -0.470856 0.0994274)
(4.07094 -0.463366 0.091296)
(3.98635 -0.407997 0.0904451)
(3.93916 -0.36402 0.0875684)
(3.98218 -0.309721 0.0799007)
(4.11858 -0.244799 0.0750638)
(3.37148 -0.0844048 0.0730733)
(5.38168 -0.198722 0.151138)
(5.89058 -0.360359 0.147394)
(5.47744 -0.373063 0.151508)
(5.35514 -0.410666 0.169081)
(5.22348 -0.44309 0.16076)
(5.15661 -0.405202 0.160973)
(5.11162 -0.392821 0.159422)
(5.16383 -0.367155 0.148512)
(5.38386 -0.323113 0.139228)
(4.57639 -0.124256 0.123821)
(5.50189 -0.21857 0.128171)
(5.98774 -0.377807 0.115841)
(5.54802 -0.373331 0.1132)
(5.43095 -0.411467 0.115475)
(5.29658 -0.444537 0.109657)
(5.23189 -0.40365 0.109329)
(5.18619 -0.390783 0.110056)
(5.23908 -0.361746 0.110106)
(5.48107 -0.315534 0.115162)
(4.7048 -0.11988 0.111619)
(5.51093 -0.229071 0.0942567)
(5.98433 -0.392615 0.0877346)
(5.53526 -0.383018 0.0814648)
(5.41452 -0.420117 0.0795218)
(5.27659 -0.449489 0.0766956)
(5.21096 -0.404881 0.0764121)
(5.16451 -0.38906 0.0774538)
(5.21803 -0.356054 0.0794748)
(5.46643 -0.308483 0.0854668)
(4.70778 -0.115625 0.0809837)
(5.50781 -0.233935 0.0426994)
(5.97911 -0.399377 0.040654)
(5.52804 -0.387838 0.0383094)
(5.40547 -0.424711 0.0373886)
(5.26564 -0.45228 0.0366197)
(5.19942 -0.405527 0.0366505)
(5.15269 -0.388175 0.0372167)
(5.20635 -0.353461 0.0380125)
(5.45662 -0.305367 0.0403433)
(4.70428 -0.113489 0.0394504)
(5.51115 -0.234154 -0.010442)
(5.98314 -0.399711 -0.0108622)
(5.53116 -0.387771 -0.00907824)
(5.40849 -0.424508 -0.00841585)
(5.26884 -0.452064 -0.00713997)
(5.20279 -0.405081 -0.00658587)
(5.15612 -0.387681 -0.00651673)
(5.20977 -0.352829 -0.00699721)
(5.46072 -0.304776 -0.0078431)
(4.7095 -0.113168 -0.00332516)
(5.52215 -0.230023 -0.064849)
(5.997 -0.393847 -0.0608145)
(5.5446 -0.382865 -0.0548651)
(5.42318 -0.419686 -0.0530854)
(5.28582 -0.448919 -0.04989)
(5.2207 -0.403623 -0.0490596)
(5.17431 -0.387592 -0.0495411)
(5.22789 -0.354019 -0.0514214)
(5.47859 -0.30643 -0.0561341)
(4.72371 -0.114499 -0.0476584)
(5.52149 -0.22028 -0.1044)
(6.00842 -0.379854 -0.0940881)
(5.56331 -0.373099 -0.0913796)
(5.44499 -0.410785 -0.0933577)
(5.3115 -0.443641 -0.087227)
(5.24761 -0.401663 -0.0864636)
(5.20203 -0.388516 -0.086887)
(5.2554 -0.358667 -0.087187)
(5.5015 -0.312301 -0.091755)
(4.73109 -0.117975 -0.0847898)
(5.40889 -0.201919 -0.136237)
(5.91895 -0.363289 -0.132701)
(5.49927 -0.372214 -0.136554)
(5.37555 -0.409095 -0.154371)
(5.2451 -0.441772 -0.145904)
(5.17939 -0.402699 -0.14594)
(5.13486 -0.390153 -0.144269)
(5.18794 -0.363571 -0.133276)
(5.41365 -0.319486 -0.123999)
(4.61469 -0.122152 -0.105993)
(4.35472 -0.182743 -0.0692687)
(4.75482 -0.360268 -0.0781115)
(4.40874 -0.418703 -0.0844131)
(4.24 -0.469678 -0.0941791)
(4.09795 -0.46204 -0.0859974)
(4.01448 -0.405416 -0.085145)
(3.96774 -0.361163 -0.0822109)
(4.01271 -0.306994 -0.0739865)
(4.15468 -0.242758 -0.0684864)
(3.4188 -0.0824195 -0.0657535)
(3.41319 -0.152037 0.176214)
(4.49776 -0.542318 0.165089)
(4.29809 -0.860076 0.111744)
(4.02029 -0.731258 0.0677082)
(3.91113 -0.571993 0.0654567)
(3.81817 -0.442388 0.0648016)
(3.77782 -0.25703 0.0702126)
(3.7294 -0.0255764 0.100708)
(3.4711 0.0475036 0.144557)
(2.1404 0.0128678 0.126357)
(4.55541 -0.118501 0.286357)
(5.66964 -0.478486 0.284379)
(5.59478 -0.824698 0.210711)
(5.29772 -0.72218 0.141819)
(5.18507 -0.559799 0.133054)
(5.09417 -0.440923 0.131001)
(5.05892 -0.258501 0.137536)
(5.02885 -0.0284805 0.180151)
(4.69699 0.0396933 0.243878)
(3.09014 0.0107819 0.239263)
(4.73928 -0.135931 0.207173)
(5.80331 -0.512549 0.204457)
(5.71422 -0.870272 0.151165)
(5.39454 -0.740221 0.107988)
(5.28636 -0.55977 0.0993818)
(5.19623 -0.437178 0.0972972)
(5.16127 -0.244465 0.102256)
(5.14753 -0.00037724 0.126651)
(4.83849 0.0626026 0.159498)
(3.2337 0.0200894 0.150734)
(4.77101 -0.148089 0.122757)
(5.81152 -0.540418 0.124843)
(5.70441 -0.902959 0.101976)
(5.37779 -0.755981 0.0828398)
(5.26991 -0.565554 0.0762254)
(5.17853 -0.437622 0.074491)
(5.14293 -0.237679 0.0772778)
(5.13257 0.0162068 0.0869327)
(4.83661 0.0798706 0.0979339)
(3.23249 0.0274756 0.090626)
(4.78229 -0.152476 0.0512542)
(5.81127 -0.550866 0.0532867)
(5.69707 -0.916352 0.0475856)
(5.36728 -0.763761 0.0421493)
(5.2589 -0.56908 0.0395657)
(5.16691 -0.437819 0.0390995)
(5.13139 -0.234352 0.0406147)
(5.12267 0.0229603 0.0442894)
(4.8309 0.0862848 0.0478198)
(3.22583 0.0296998 0.0451371)
(4.78793 -0.153301 -0.00981849)
(5.81493 -0.551449 -0.0130217)
(5.70142 -0.917105 -0.00864749)
(5.37161 -0.764089 -0.00343181)
(5.26307 -0.568961 -0.00114555)
(5.17105 -0.437317 -0.000109516)
(5.13568 -0.233216 2.40073e-05)
(5.12809 0.0243976 -0.000220157)
(4.8375 0.0873039 0.000596442)
(3.23281 0.0301923 0.00714039)
(4.78801 -0.150554 -0.0829677)
(5.82244 -0.542957 -0.0867597)
(5.717 -0.906129 -0.0660732)
(5.39074 -0.756988 -0.0477147)
(5.28267 -0.565125 -0.0412744)
(5.19121 -0.436205 -0.0390822)
(5.15604 -0.234323 -0.0404845)
(5.14885 0.021051 -0.0466121)
(4.8573 0.0836572 -0.0531543)
(3.25613 0.0292672 -0.0420182)
(4.76807 -0.139994 -0.174175)
(5.82196 -0.516799 -0.17271)
(5.73479 -0.875558 -0.121149)
(5.41552 -0.742006 -0.0788913)
(5.30712 -0.559032 -0.0703352)
(5.21679 -0.435019 -0.0678212)
(5.18237 -0.239164 -0.0715679)
(5.17341 0.00725876 -0.0931521)
(4.87017 0.0688408 -0.122854)
(3.2719 0.0234322 -0.112318)
(4.59829 -0.122795 -0.265138)
(5.69689 -0.483584 -0.264495)
(5.62456 -0.831116 -0.191642)
(5.32812 -0.724336 -0.122678)
(5.21545 -0.558503 -0.113816)
(5.12454 -0.437846 -0.111357)
(5.08978 -0.251785 -0.117233)
(5.06552 -0.0199652 -0.15903)
(4.73966 0.0460033 -0.22164)
(3.14042 0.0141956 -0.218297)
(3.4644 -0.150509 -0.16974)
(4.53549 -0.544956 -0.159116)
(4.33474 -0.865001 -0.105564)
(4.05717 -0.732673 -0.0607246)
(3.94842 -0.570046 -0.0583302)
(3.85541 -0.438543 -0.0573702)
(3.81569 -0.249454 -0.0624592)
(3.77202 -0.0150643 -0.0931874)
(3.51833 0.0572569 -0.138105)
(2.18689 0.0168162 -0.121992)
(4.75679 -0.669944 0.177473)
(4.71852 -1.16794 0.101936)
(4.02562 -1.09006 0.0362816)
(3.88649 -0.824201 0.0483984)
(3.70809 -0.720624 0.0546561)
(3.58435 -0.598544 0.0550157)
(3.51166 -0.482974 0.0470905)
(3.51294 -0.284422 0.0358276)
(3.76496 -0.103841 0.0733729)
(3.30995 0.00482724 0.158757)
(5.9576 -0.535738 0.324535)
(6.18017 -1.07127 0.210434)
(5.38458 -1.03497 0.104756)
(5.22562 -0.770278 0.109873)
(5.09323 -0.690729 0.115845)
(4.99325 -0.595064 0.114975)
(4.9294 -0.496653 0.105753)
(4.95393 -0.27365 0.0993769)
(5.31364 -0.10459 0.155874)
(4.72927 -0.0133461 0.208436)
(6.20046 -0.562468 0.231089)
(6.35691 -1.14528 0.160156)
(5.4974 -1.06752 0.0960127)
(5.34819 -0.766752 0.0915522)
(5.22427 -0.685668 0.0903384)
(5.12646 -0.594454 0.0879484)
(5.05995 -0.496219 0.0841568)
(5.08044 -0.245248 0.0839695)
(5.47872 -0.0480183 0.123993)
(4.9186 0.0212904 0.155309)
(6.22577 -0.587407 0.133272)
(6.35651 -1.19144 0.110343)
(5.48427 -1.09441 0.0825032)
(5.3395 -0.777191 0.0762862)
(5.21418 -0.691507 0.0724667)
(5.11571 -0.596734 0.0706165)
(5.05003 -0.495083 0.0706853)
(5.06841 -0.232041 0.0731874)
(5.47138 -0.0267458 0.0928761)
(4.92803 0.0327106 0.0933799)
(6.22727 -0.596267 0.0591528)
(6.35158 -1.20844 0.0533059)
(5.47597 -1.10554 0.046299)
(5.33206 -0.784183 0.0432733)
(5.20581 -0.695285 0.0418539)
(5.10702 -0.597432 0.0415833)
(5.0414 -0.493565 0.0422231)
(5.059 -0.226681 0.0442032)
(5.46374 -0.0195307 0.0505671)
(4.92955 0.0369672 0.0513284)
(6.23393 -0.596243 -0.00417641)
(6.35738 -1.20961 -0.00298864)
(5.48123 -1.10593 0.00369151)
(5.33715 -0.784173 0.00615524)
(5.21138 -0.694918 0.00844617)
(5.11278 -0.5967 0.00970366)
(5.04701 -0.492338 0.00987557)
(5.06467 -0.224271 0.010286)
(5.47073 -0.0169805 0.00885926)
(4.93913 0.0379248 0.017438)
(6.24695 -0.588284 -0.0805589)
(6.37431 -1.19629 -0.063658)
(5.50024 -1.09592 -0.0371382)
(5.35571 -0.776629 -0.0311108)
(5.23156 -0.690255 -0.0263799)