/*--------------------------------*- C++ -*----------------------------------*\
| =========                 |                                                 |
| \\      /  F ield         | OpenFOAM: The Open Source CFD Toolbox           |
|  \\    /   O peration     | Version:  1.7.x                                 |
|   \\  /    A nd           | Web:      www.OpenFOAM.com                      |
|    \\/     M anipulation  |                                                 |
\*---------------------------------------------------------------------------*/
FoamFile
{
    version     2.0;
    format      ascii;
    class       surfaceScalarField;
    location    "0.5";
    object      phi;
}
// * * * * * * * * * * * * * * * * * * * * * * * * * * * * * * * * * * * * * //

dimensions      [0 3 -1 0 0 0 0];

internalField   nonuniform List<scalar> 
2700
(
0.0499984
8.1676e-07
7.35376e-07
0.0499969
7.94328e-07
7.04979e-07
0.0499952
9.17936e-07
8.2913e-07
0.0499934
9.67295e-07
8.76021e-07
0.0499922
5.84476e-07
5.25747e-07
0.0499919
2.08658e-07
1.85563e-07
0.0499917
8.02751e-08
7.13512e-08
0.0499916
5.18611e-08
4.6643e-08
0.0499916
2.36211e-08
2.11148e-08
3.80443e-09
3.282e-09
0.0499995
5.90682e-07
7.3525e-07
0.049999
6.27476e-07
7.05323e-07
0.0499984
6.8806e-07
8.29212e-07
0.0499977
7.34348e-07
8.75672e-07
0.0499973
4.56875e-07
5.25653e-07
0.0499972
1.69955e-07
1.85602e-07
0.0499971
6.60284e-08
7.1398e-08
0.0499971
4.24465e-08
4.68372e-08
0.0499971
1.96554e-08
2.13235e-08
3.41608e-09
3.36728e-09
0.0499995
3.90941e-07
7.35371e-07
0.0499989
4.43683e-07
7.05172e-07
0.0499983
4.68853e-07
8.29038e-07
0.0499977
5.02854e-07
8.75723e-07
0.0499973
3.20873e-07
5.25678e-07
0.0499972
1.24032e-07
1.85565e-07
0.0499971
4.89727e-08
7.1283e-08
0.0499971
3.17135e-08
4.67347e-08
0.0499971
1.48097e-08
2.12648e-08
2.63883e-09
3.33951e-09
0.0499994
2.07293e-07
7.35361e-07
0.0499989
2.49701e-07
7.05138e-07
0.0499983
2.56511e-07
8.29059e-07
0.0499977
2.75253e-07
8.75903e-07
0.0499973
1.80548e-07
5.25932e-07
0.0499972
7.2245e-08
1.85728e-07
0.0499971
2.85203e-08
7.13322e-08
0.0499971
1.90036e-08
4.67107e-08
0.0499971
8.84103e-09
2.13179e-08
1.4492e-09
3.37419e-09
0.0499994
3.23214e-08
7.35598e-07
0.0499989
5.20915e-08
7.04953e-07
0.0499983
4.72325e-08
8.2879e-07
0.0499977
4.90009e-08
8.75818e-07
0.0499973
3.72069e-08
5.25836e-07
0.0499971
1.73439e-08
1.85579e-07
0.0499971
6.73454e-09
7.12236e-08
0.0499971
5.54121e-09
4.66021e-08
0.0499971
2.50313e-09
2.12975e-08
1.81363e-10
3.3951e-09
0.0499994
-1.41169e-07
7.35323e-07
0.0499989
-1.45495e-07
7.0489e-07
0.0499983
-1.62118e-07
8.2911e-07
0.0499977
-1.77435e-07
8.76188e-07
0.0499973
-1.06911e-07
5.26127e-07
0.0499971
-3.8246e-08
1.85778e-07
0.0499971
-1.53104e-08
7.12489e-08
0.0499971
-8.19574e-09
4.65517e-08
0.0499971
-3.97191e-09
2.13093e-08
-1.09126e-09
3.41382e-09
0.0499994
-3.21208e-07
7.35413e-07
0.0499989
-3.39688e-07
7.0509e-07
0.0499983
-3.73567e-07
8.29054e-07
0.0499977
-4.04585e-07
8.75816e-07
0.0499973
-2.48811e-07
5.25865e-07
0.0499972
-9.14012e-08
1.85774e-07
0.0499971
-3.61973e-08
7.12315e-08
0.0499971
-2.16538e-08
4.64793e-08
0.0499971
-1.02466e-08
2.12852e-08
-2.22153e-09
3.41098e-09
0.0499995
-5.14084e-07
7.3537e-07
0.0499989
-5.24551e-07
7.05331e-07
0.0499983
-5.91644e-07
8.29014e-07
0.0499977
-6.35404e-07
8.75507e-07
0.0499973
-3.87517e-07
5.25875e-07
0.0499972
-1.39779e-07
1.86011e-07
0.0499971
-5.4321e-08
7.13913e-08
0.0499971
-3.37732e-08
4.64868e-08
0.0499971
-1.56731e-08
2.13422e-08
-2.98461e-09
3.44861e-09
0.0499995
-7.29939e-07
7.35447e-07
0.0499989
-6.94616e-07
7.05145e-07
0.0499983
-8.19457e-07
8.29063e-07
0.0499977
-8.66304e-07
8.75611e-07
0.0499973
-5.18158e-07
5.25784e-07
0.0499972
-1.8193e-07
1.85945e-07
0.0499971
-7.00587e-08
7.13225e-08
0.0499971
-4.5e-08
4.64373e-08
0.0499971
-2.05684e-08
2.12898e-08
-3.45108e-09
3.41509e-09
0.0499985
7.35418e-07
0.0499971
7.05154e-07
0.0499955
8.29088e-07
0.0499937
8.75536e-07
0.0499927
5.25669e-07
0.0499923
1.85964e-07
0.0499922
7.13572e-08
0.0499921
4.63812e-08
0.0499921
2.12642e-08
3.41726e-09
0.0499994
8.16633e-07
5.25214e-07
0.0499988
7.94682e-07
5.45865e-07
0.0499981
9.18025e-07
6.10711e-07
0.0499973
9.66946e-07
6.54138e-07
0.0499969
5.84384e-07
4.0261e-07
0.0499967
2.08696e-07
1.46909e-07
0.0499966
8.03201e-08
5.67404e-08
0.0499966
5.2055e-08
3.71742e-08
0.0499966
2.38291e-08
1.70612e-08
3.89021e-09
2.79417e-09
0.0500004
5.90602e-07
5.25133e-07
0.0500008
6.27632e-07
5.46014e-07
0.0500012
6.88153e-07
6.10802e-07
0.0500017
7.34253e-07
6.54045e-07
0.0500019
4.56982e-07
4.02715e-07
0.050002
1.70085e-07
1.47041e-07
0.050002
6.6072e-08
5.67853e-08
0.050002
4.25342e-08
3.72629e-08
0.050002
1.97997e-08
1.72066e-08
3.48117e-09
2.85969e-09
0.0500004
3.9102e-07
5.25351e-07
0.0500008
4.43758e-07
5.45667e-07
0.0500012
4.68661e-07
6.10478e-07
0.0500016
5.02762e-07
6.54326e-07
0.0500019
3.21058e-07
4.02987e-07
0.050002
1.24211e-07
1.47047e-07
0.050002
4.89641e-08
5.66232e-08
0.050002
3.16722e-08
3.70424e-08
0.050002
1.48888e-08
1.70575e-08
2.69351e-09
2.80308e-09
0.0500004
2.07309e-07
5.25259e-07
0.0500007
2.49649e-07
5.45521e-07
0.0500012
2.56442e-07
6.10698e-07
0.0500016
2.75388e-07
6.54711e-07
0.0500019
1.80754e-07
4.03199e-07
0.050002
7.23483e-08
1.47189e-07
0.050002
2.8476e-08
5.66727e-08
0.050002
1.89425e-08
3.69915e-08
0.050002
8.90279e-09
1.70972e-08
1.50175e-09
2.83658e-09
0.0500004
3.23651e-08
5.25469e-07
0.0500007
5.20657e-08
5.45211e-07
0.0500012
4.71417e-08
6.10626e-07
0.0500016
4.89617e-08
6.54701e-07
0.0500019
3.72773e-08
4.02861e-07
0.050002
1.73957e-08
1.46919e-07
0.050002
6.66721e-09
5.65402e-08
0.050002
5.50751e-09
3.68056e-08
0.050002
2.53479e-09
1.70213e-08
1.94918e-10
2.84179e-09
0.0500004
-1.41261e-07
5.25188e-07
0.0500007
-1.45323e-07
5.45253e-07
0.0500012
-1.62093e-07
6.10891e-07
0.0500016
-1.77623e-07
6.55009e-07
0.0500019
-1.06887e-07
4.03274e-07
0.050002
-3.8064e-08
1.47337e-07
0.050002
-1.52847e-08
5.66419e-08
0.050002
-8.22539e-09
3.66846e-08
0.050002
-3.9491e-09
1.69952e-08
-1.08332e-09
2.86582e-09
0.0500004
-3.21165e-07
5.25247e-07
0.0500007
-3.39547e-07
5.45461e-07
0.0500012
-3.73616e-07
6.10903e-07
0.0500016
-4.04831e-07
6.54431e-07
0.0500019
-2.48853e-07
4.02665e-07
0.050002
-9.12304e-08
1.47326e-07
0.050002
-3.60976e-08
5.67403e-08
0.050002
-2.16466e-08
3.6599e-08
0.050002
-1.02233e-08
1.70012e-08
-2.20933e-09
2.89253e-09
0.0500004
-5.14107e-07
5.25188e-07
0.0500007
-5.24776e-07
5.45558e-07
0.0500012
-5.91498e-07
6.10833e-07
0.0500016
-6.3519e-07
6.54302e-07
0.0500019
-3.87385e-07
4.02873e-07
0.050002
-1.39694e-07
1.4766e-07
0.050002
-5.42076e-08
5.68432e-08
0.050002
-3.3781e-08
3.65404e-08
0.050002
-1.5712e-08
1.70423e-08
-2.9948e-09
2.92813e-09
0.0500004
-7.29999e-07
5.25245e-07
0.0500008
-6.94712e-07
5.45573e-07
0.0500012
-8.1936e-07
6.10749e-07
0.0500017
-8.66154e-07
6.54079e-07
0.0500019
-5.18009e-07
4.02835e-07
0.050002
-1.818e-07
1.47823e-07
0.050002
-6.99896e-08
5.68741e-08
0.050002
-4.50772e-08
3.64435e-08
0.050002
-2.06479e-08
1.7001e-08
-3.47212e-09
2.90996e-09
0.0499995
5.25269e-07
0.0499989
5.45418e-07
0.0499983
6.10842e-07
0.0499977
6.5424e-07
0.0499973
4.02854e-07
0.0499972
1.47815e-07
0.0499971
5.69015e-08
0.0499971
3.64536e-08
0.0499971
1.70299e-08
2.92101e-09
0.0499994
8.16757e-07
3.38516e-07
0.0499988
7.94514e-07
3.71243e-07
0.049998
9.17852e-07
4.02051e-07
0.0499973
9.67017e-07
4.335e-07
0.0499968
5.84425e-07
2.7198e-07
0.0499967
2.08667e-07
1.01914e-07
0.0499966
8.02107e-08
3.97204e-08
0.0499966
5.19542e-08
2.6564e-08
0.0499966
2.3772e-08
1.22257e-08
3.86213e-09
1.96359e-09
0.0500004
5.90828e-07
3.38591e-07
0.0500008
6.27256e-07
3.71304e-07
0.0500012
6.87821e-07
4.01874e-07
0.0500016
7.34555e-07
4.33432e-07
0.0500019
4.57272e-07
2.72177e-07
0.050002
1.70106e-07
1.02098e-07
0.050002
6.59187e-08
3.9714e-08
0.050002
4.23188e-08
2.65233e-08
0.050002
1.96534e-08
1.23057e-08
3.42513e-09
2.01851e-09
0.0500004
3.91172e-07
3.38726e-07
0.0500007
4.43306e-07
3.70843e-07
0.0500012
4.68636e-07
4.01862e-07
0.0500016
5.0316e-07
4.33851e-07
0.0500019
3.21082e-07
2.72221e-07
0.050002
1.24058e-07
1.01959e-07
0.050002
4.88472e-08
3.95996e-08
0.050002
3.14769e-08
2.63282e-08
0.050002
1.47589e-08
1.21746e-08
2.65911e-09
1.98324e-09
0.0500004
2.07233e-07
3.3864e-07
0.0500007
2.49391e-07
3.70804e-07
0.0500012
2.56638e-07
4.02035e-07
0.0500016
2.75729e-07
4.34049e-07
0.0500019
1.80782e-07
2.72304e-07
0.050002
7.23007e-08
1.02066e-07
0.050002
2.84915e-08
3.95592e-08
0.050002
1.88095e-08
2.62143e-08
0.050002
8.81501e-09
1.22021e-08
1.49584e-09
2.014e-09
0.0500004
3.24111e-08
3.38559e-07
0.0500007
5.22034e-08
3.70745e-07
0.0500012
4.70209e-08
4.02251e-07
0.0500016
4.86329e-08
4.34069e-07
0.0500019
3.69934e-08
2.72202e-07
0.050002
1.72838e-08
1.02163e-07
0.050002
6.66043e-09
3.9573e-08
0.050002
5.32112e-09
2.60255e-08
0.050002
2.4605e-09
1.21376e-08
2.15601e-10
2.02347e-09
0.0500004
-1.4139e-07
3.38534e-07
0.0500007
-1.45222e-07
3.70807e-07
0.0500011
-1.61933e-07
4.02291e-07
0.0500016
-1.77812e-07
4.33736e-07
0.0500019
-1.07131e-07
2.72005e-07
0.050002
-3.80141e-08
1.02459e-07
0.050002
-1.51859e-08
3.97521e-08
0.050002
-8.33031e-09
2.58699e-08
0.050002
-3.96069e-09
1.21256e-08
-1.0461e-09
2.06029e-09
0.0500004
-3.21149e-07
3.38581e-07
0.0500007
-3.39316e-07
3.70802e-07
0.0500012
-3.73735e-07
4.02346e-07
0.0500016
-4.05329e-07
4.33524e-07
0.0500019
-2.49153e-07
2.71815e-07
0.050002
-9.12192e-08
1.02684e-07
0.050002
-3.61374e-08
3.99094e-08
0.050002
-2.17705e-08
2.5803e-08
0.050002
-1.02199e-08
1.21519e-08
-2.19442e-09
2.09469e-09
0.0500004
-5.14002e-07
3.38527e-07
0.0500007
-5.24514e-07
3.70824e-07
0.0500012
-5.91709e-07
4.02352e-07
0.0500016
-6.35741e-07
4.33471e-07
0.0500019
-3.87686e-07
2.72004e-07
0.050002
-1.39704e-07
1.02983e-07
0.050002
-5.42853e-08
3.99075e-08
0.050002
-3.3887e-08
2.5613e-08
0.050002
-1.57101e-08
1.21306e-08
-2.9958e-09
2.10904e-09
0.0500004
-7.29844e-07
3.38568e-07
0.0500007
-6.94716e-07
3.70785e-07
0.0500012
-8.19491e-07
4.02329e-07
0.0500016
-8.66429e-07
4.33341e-07
0.0500019
-5.18371e-07
2.71945e-07
0.050002
-1.8204e-07
1.03023e-07
0.050002
-7.00925e-08
3.9855e-08
0.050002
-4.50753e-08
2.5465e-08
0.050002
-2.05912e-08
1.20974e-08
-3.4586e-09
2.11448e-09
0.0499995
3.38592e-07
0.0499989
3.70813e-07
0.0499983
4.02344e-07
0.0499977
4.33204e-07
0.0499973
2.71834e-07
0.0499972
1.03014e-07
0.0499971
3.9812e-08
0.0499971
2.54309e-08
0.0499971
1.21502e-08
2.13157e-09
0.0499994
8.16734e-07
1.65785e-07
0.0499987
7.94532e-07
1.87166e-07
0.049998
9.17869e-07
1.99672e-07
0.0499973
9.67148e-07
2.16431e-07
0.0499968
5.84641e-07
1.3768e-07
0.0499967
2.08812e-07
5.18645e-08
0.0499966
8.02495e-08
1.9775e-08
0.0499966
5.19263e-08
1.42132e-08
0.0499966
2.38229e-08
6.39931e-09
3.89616e-09
7.74201e-10
0.0500004
5.90722e-07
1.65783e-07
0.0500008
6.27173e-07
1.87142e-07
0.0500012
6.88037e-07
1.99628e-07
0.0500016
7.3489e-07
2.16558e-07
0.0500019
4.57447e-07
1.37873e-07
0.050002
1.70228e-07
5.19586e-08
0.050002
6.59557e-08
1.97259e-08
0.050002
4.22611e-08
1.41513e-08
0.050002
1.96897e-08
6.46121e-09
3.45767e-09
8.26012e-10
0.0500004
3.91074e-07
1.65676e-07
0.0500007
4.43261e-07
1.86921e-07
0.0500012
4.68811e-07
1.99832e-07
0.0500016
5.03378e-07
2.16893e-07
0.0500019
3.21192e-07
1.37894e-07
0.050002
1.24179e-07
5.19195e-08
0.050002
4.88098e-08
1.97373e-08
0.050002
3.13613e-08
1.40147e-08
0.050002
1.47843e-08
6.37139e-09
2.68848e-09
8.19663e-10
0.0500004
2.07156e-07
1.65573e-07
0.0500007
2.49314e-07
1.86827e-07
0.0500011
2.56932e-07
2.0016e-07
0.0500016
2.75888e-07
2.17052e-07
0.0500019
1.80652e-07
1.37756e-07
0.050002
7.23583e-08
5.19725e-08
0.050002
2.84655e-08
1.97091e-08
0.050002
1.86348e-08
1.38426e-08
0.050002
8.78857e-09
6.348e-09
1.51797e-09
8.42215e-10
0.0500003
3.23492e-08
1.65546e-07
0.0500007
5.22064e-08
1.87238e-07
0.0500011
4.72276e-08
1.99965e-07
0.0500016
4.87322e-08
2.16397e-07
0.0500019
3.70164e-08
1.37732e-07
0.050002
1.75832e-08
5.24829e-08
0.050002
6.78414e-09
1.98595e-08
0.050002
5.19796e-09
1.36575e-08
0.050002
2.44774e-09
6.36452e-09
2.29406e-10
8.88616e-10
0.0500003
-1.41322e-07
1.65721e-07
0.0500007
-1.45145e-07
1.87201e-07
0.0500011
-1.62042e-07
1.9983e-07
0.0500016
-1.78097e-07
2.15948e-07
0.0500019
-1.07134e-07
1.37373e-07
0.050002
-3.76279e-08
5.2667e-08
0.050002
-1.50076e-08
1.99989e-08
0.050002
-8.43708e-09
1.35113e-08
0.050002
-3.94716e-09
6.40968e-09
-1.02681e-09
9.54093e-10
0.0500004
-3.21198e-07
1.65694e-07
0.0500007
-3.39424e-07
1.87004e-07
0.0500011
-3.73745e-07
2.00055e-07
0.0500016
-4.05327e-07
2.16171e-07
0.0500019
-2.48903e-07
1.37518e-07
0.050002
-9.07896e-08
5.29023e-08
0.050002
-3.59736e-08
1.99908e-08
0.050002
-2.1881e-08
1.33115e-08
0.050002
-1.02155e-08
6.35934e-09
-2.16774e-09
9.54232e-10
0.0500004
-5.14139e-07
1.65722e-07
0.0500007
-5.24745e-07
1.87068e-07
0.0500012
-5.91495e-07
2.0002e-07
0.0500016
-6.35407e-07
2.15828e-07
0.0500019
-3.87273e-07
1.37423e-07
0.050002
-1.39292e-07
5.31308e-08
0.050002
-5.41205e-08
2.00053e-08
0.050002
-3.39363e-08
1.31191e-08
0.050002
-1.56991e-08
6.3734e-09
-2.97343e-09
9.86296e-10
0.0500004
-7.2998e-07
1.65664e-07
0.0500007
-6.948e-07
1.86727e-07
0.0500012
-8.1923e-07
2.00141e-07
0.0500016
-8.66095e-07
2.16119e-07
0.0500019
-5.18027e-07
1.37648e-07
0.050002
-1.81772e-07
5.32446e-08
0.050002
-7.00101e-08
1.99853e-08
0.050002
-4.51245e-08
1.29845e-08
0.050002
-2.06193e-08
6.35791e-09
-3.46611e-09
1.00467e-09
0.0499994
1.65647e-07
0.0499989
1.86834e-07
0.0499983
2.00151e-07
0.0499977
2.15951e-07
0.0499973
1.37533e-07
0.0499972
5.33399e-08
0.0499971
2.00568e-08
0.0499971
1.30081e-08
0.0499971
6.44872e-09
1.04331e-09
0.0499993
8.16943e-07
6.16167e-11
0.0499987
7.94236e-07
-6.76498e-11
0.049998
9.177e-07
-5.82505e-11
0.0499973
9.67225e-07
2.70198e-10
0.0499968
5.84634e-07
7.8164e-10
0.0499967
2.0871e-07
-6.627e-10
0.0499966
8.01591e-08
-1.13845e-09
0.0499966
5.18236e-08
1.28014e-09
0.0499966
2.38052e-08
3.04614e-10
3.91818e-09
-4.52351e-10
0.0500004
5.90905e-07
4.40576e-11
0.0500007
6.2676e-07
-1.4621e-10
0.0500012
6.88074e-07
-2.08865e-11
0.0500016
7.35021e-07
3.79222e-10
0.0500019
4.57178e-07
9.26184e-10
0.050002
1.70009e-07
-5.87601e-10
0.050002
6.5843e-08
-1.20095e-09
0.050002
4.20824e-08
1.24835e-09
0.050002
1.96167e-08
3.3882e-10
3.46454e-09
-4.38881e-10
0.0500004
3.91017e-07
-1.06122e-11
0.0500007
4.43178e-07
4.27506e-13
0.0500012
4.69027e-07
-1.84557e-11
0.0500016
5.03388e-07
1.45368e-10
0.0500019
3.21067e-07
6.82827e-10
0.050002
1.24264e-07
-6.30901e-10
0.050002
4.8822e-08
-1.19409e-09
0.050002
3.11751e-08
1.061e-09
0.050002
1.4722e-08
2.61309e-10
2.69952e-09
-4.19079e-10
0.0500003
2.07113e-07
-4.16657e-11
0.0500007
2.49801e-07
-6.09901e-11
0.0500011
2.56699e-07
1.90296e-10
0.0500016
2.75135e-07
2.02696e-10
0.0500019
1.80565e-07
6.61578e-10
0.050002
7.2829e-08
-3.62763e-10
0.050002
2.85953e-08
-1.07455e-09
0.050002
1.84506e-08
9.39224e-10
0.050002
8.80645e-09
2.53188e-10
1.5649e-09
-4.03794e-10
0.0500003
3.22118e-08
-3.28974e-11
0.0500007
5.25369e-08
1.39676e-10
0.0500011
4.73533e-08
3.67272e-11
0.0500016
4.81928e-08
-4.70245e-10
0.0500019
3.68128e-08
4.13665e-10
0.050002
1.80705e-08
2.19866e-11
0.050002
7.01149e-09
-8.52618e-10
0.050002
5.07596e-09
8.13961e-10
0.050002
2.51406e-09
3.12765e-10
2.96965e-10
-3.39276e-10
0.0500003
-1.41287e-07
2.79034e-11
0.0500007
-1.45327e-07
-1.15019e-10
0.0500011
-1.61842e-07
2.46749e-10
0.0500016
-1.78133e-07
-2.94421e-10
0.0500019
-1.07334e-07
4.09921e-10
0.050002
-3.75375e-08
1.73366e-10
0.050002
-1.49895e-08
-9.02773e-10
0.050002
-8.60639e-09
5.80473e-10
0.050002
-3.94718e-09
2.81756e-10
-9.91038e-10
-3.05439e-10
0.0500003
-3.21111e-07
-5.99612e-11
0.0500007
-3.39523e-07
-2.08059e-10
0.0500011
-3.73603e-07
3.29391e-10
0.0500016
-4.05236e-07
-3.9057e-10
0.0500019
-2.48906e-07
5.5659e-10
0.050002
-9.07659e-08
5.96472e-10
0.050002
-3.6143e-08
-8.4066e-10
0.050002
-2.21349e-08
3.36385e-10
0.050002
-1.02763e-08
2.71161e-10
-2.16831e-09
-2.83669e-10
0.0500004
-5.13894e-07
1.77047e-11
0.0500007
-5.24774e-07
-2.68556e-10
0.0500011
-5.91679e-07
3.79198e-10
0.0500016
-6.35582e-07
-4.51341e-10
0.0500019
-3.87528e-07
5.23987e-10
0.050002
-1.3951e-07
7.04968e-10
0.050002
-5.43401e-08
-9.1041e-10
0.050002
-3.41576e-08
1.57005e-10
0.050002
-1.57266e-08
3.18296e-10
-2.96232e-09
-2.29729e-10
0.0500004
-7.29802e-07
-6.79347e-11
0.0500007
-6.94704e-07
-1.71495e-10
0.0500012
-8.1945e-07
4.80157e-10
0.0500016
-8.66539e-07
-7.08477e-10
0.0500019
-5.18394e-07
3.99516e-10
0.050002
-1.8188e-07
8.3024e-10
0.050002
-7.00408e-08
-9.22126e-10
0.050002
-4.51762e-08
-9.4381e-12
0.050002
-2.05444e-08
3.7122e-10
-3.43037e-09
-1.80162e-10
0.0499994
-3.96836e-11
0.0499989
-2.04415e-10
0.0499983
4.5721e-10
0.0499977
-6.98651e-10
0.0499973
3.67211e-10
0.0499971
7.98981e-10
0.0499971
-9.76971e-10
0.0499971
-5.09238e-11
0.0499971
3.98177e-10
-1.56942e-10
0.0499993
8.16727e-07
-1.65573e-07
0.0499987
7.94343e-07
-1.87311e-07
0.049998
9.17831e-07
-1.99801e-07
0.0499973
9.67345e-07
-2.16055e-07
0.0499968
5.84802e-07
-1.36376e-07
0.0499967
2.08842e-07
-5.32512e-08
0.0499966
8.01635e-08
-2.19782e-08
0.0499966
5.17676e-08
-1.17799e-08
0.0499966
2.38158e-08
-5.84138e-09
3.93704e-09
-1.64544e-09
0.0500004
5.90677e-07
-1.65705e-07
0.0500007
6.26979e-07
-1.87106e-07
0.0500012
6.88158e-07
-1.99743e-07
0.0500016
7.35129e-07
-2.16241e-07
0.0500019
4.57514e-07
-1.36366e-07
0.050002
1.70358e-07
-5.30809e-08
0.050002
6.59225e-08
-2.19567e-08
0.050002
4.19564e-08
-1.18104e-08
0.050002
1.95917e-08
-5.81667e-09
3.488e-09
-1.63704e-09
0.0500004
3.90937e-07
-1.65883e-07
0.0500007
4.43358e-07
-1.8696e-07
0.0500012
4.69104e-07
-1.99561e-07
0.0500016
5.03088e-07
-2.16413e-07
0.0500019
3.20906e-07
-1.36591e-07
0.050002
1.24593e-07
-5.30092e-08
0.050002
4.90061e-08
-2.18556e-08
0.050002
3.10213e-08
-1.19193e-08
0.050002
1.47139e-08
-5.83289e-09
2.73685e-09
-1.60154e-09
0.0500003
2.0722e-07
-1.65833e-07
0.0500007
2.4976e-07
-1.8691e-07
0.0500011
2.56731e-07
-1.99624e-07
0.0500016
2.74878e-07
-2.16709e-07
0.0500019
1.80322e-07
-1.36639e-07
0.050002
7.31106e-08
-5.26449e-08
0.050002
2.87592e-08
-2.16786e-08
0.050002
1.8308e-08
-1.20224e-08
0.050002
8.86016e-09
-5.81601e-09
1.63119e-09
-1.58051e-09
0.0500003
3.2386e-08
-1.65721e-07
0.0500007
5.21424e-08
-1.87271e-07
0.0500011
4.73478e-08
-1.99496e-07
0.0500016
4.82315e-08
-2.1662e-07
0.0500019
3.67082e-08
-1.36694e-07
0.050002
1.80887e-08
-5.24991e-08
0.050002
6.9535e-09
-2.16429e-08
0.050002
4.83773e-09
-1.21862e-08
0.050002
2.48312e-09
-5.81416e-09
3.26663e-10
-1.54484e-09
0.0500003
-1.41204e-07
-1.65659e-07
0.0500007
-1.45524e-07
-1.87288e-07
0.0500011
-1.61863e-07
-1.99513e-07
0.0500016
-1.7809e-07
-2.16833e-07
0.0500019
-1.07126e-07
-1.36715e-07
0.050002
-3.72658e-08
-5.23255e-08
0.050002
-1.50523e-08
-2.17319e-08
0.050002
-8.86773e-09
-1.24622e-08
0.050002
-3.99115e-09
-5.86691e-09
-9.82821e-10
-1.53799e-09
0.0500003
-3.21228e-07
-1.65719e-07
0.0500007
-3.39343e-07
-1.87191e-07
0.0500011
-3.73583e-07
-1.99388e-07
0.0500016
-4.05646e-07
-2.17051e-07
0.0500019
-2.48909e-07
-1.3668e-07
0.050002
-9.03521e-08
-5.18919e-08
0.050002
-3.59883e-08
-2.16728e-08
0.050002
-2.22658e-08
-1.27169e-08
0.050002
-1.02081e-08
-5.79296e-09
-2.10983e-09
-1.46485e-09
0.0500004
-5.14138e-07
-1.65667e-07
0.0500007
-5.24555e-07
-1.87297e-07
0.0500011
-5.91502e-07
-1.99294e-07
0.0500016
-6.35905e-07
-2.17016e-07
0.0500019
-3.87429e-07
-1.36829e-07
0.050002
-1.38987e-07
-5.1988e-08
0.050002
-5.409e-08
-2.17838e-08
0.050002
-3.42063e-08
-1.28346e-08
0.050002
-1.56256e-08
-5.72442e-09
-2.88587e-09
-1.39876e-09
0.0500004
-7.29898e-07
-1.65799e-07
0.0500007
-6.94808e-07
-1.87732e-07
0.0500012
-8.1932e-07
-1.98986e-07
0.0500016
-8.66387e-07
-2.16608e-07
0.0500019
-5.18157e-07
-1.36774e-07
0.050002
-1.81671e-07
-5.19737e-08
0.050002
-6.99801e-08
-2.17989e-08
0.050002
-4.52222e-08
-1.29358e-08
0.050002
-2.05267e-08
-5.65547e-09
-3.40495e-09
-1.36211e-09
0.0499994
-1.65813e-07
0.0499989
-1.87603e-07
0.0499983
-1.99044e-07
0.0499977
-2.16808e-07
0.0499973
-1.36794e-07
0.0499971
-5.18241e-08
0.0499971
-2.175e-08
0.0499971
-1.29922e-08
0.0499971
-5.66313e-09
-1.34921e-09
0.0499994
8.16834e-07
-3.38702e-07
0.0499987
7.94423e-07
-3.7099e-07
0.049998
9.17836e-07
-4.01814e-07
0.0499973
9.67099e-07
-4.33426e-07
0.0499968
5.84614e-07
-2.71151e-07
0.0499967
2.08878e-07
-1.03017e-07
0.0499966
8.0157e-08
-4.14039e-08
0.0499966
5.17006e-08
-2.44392e-08
0.0499966
2.37936e-08
-1.17089e-08
3.9338e-09
-2.66345e-09
0.0500004
5.90752e-07
-3.38657e-07
0.0500008
6.27065e-07
-3.70861e-07
0.0500012
6.88231e-07
-4.01857e-07
0.0500016
7.34652e-07
-4.33661e-07
0.0500019
4.56952e-07
-2.71191e-07
0.050002
1.70373e-07
-1.02842e-07
0.050002
6.60221e-08
-4.12971e-08
0.050002
4.18741e-08
-2.44288e-08
0.050002
1.95998e-08
-1.16849e-08
3.5152e-09
-2.65095e-09
0.0500004
3.91025e-07
-3.3867e-07
0.0500007
4.433e-07
-3.70628e-07
0.0500012
4.69112e-07
-4.01941e-07
0.0500016
5.02852e-07
-4.34122e-07
0.0500019
3.20708e-07
-2.71465e-07
0.050002
1.24802e-07
-1.02824e-07
0.050002
4.91568e-08
-4.13481e-08
0.050002
3.09561e-08
-2.45599e-08
0.050002
1.474e-08
-1.16844e-08
2.77021e-09
-2.6371e-09
0.0500004
2.07161e-07
-3.38685e-07
0.0500007
2.49601e-07
-3.70751e-07
0.0500011
2.5694e-07
-4.01991e-07
0.0500016
2.75018e-07
-4.34164e-07
0.0500019
1.80391e-07
-2.71249e-07
0.050002
7.32719e-08
-1.02398e-07
0.050002
2.87276e-08
-4.1172e-08
0.050002
1.81084e-08
-2.46629e-08
0.050002
8.80618e-09
-1.16767e-08
1.63012e-09
-2.60893e-09
0.0500003
3.22692e-08
-3.38661e-07
0.0500007
5.18875e-08
-3.7079e-07
0.0500011
4.75094e-08
-4.01786e-07
0.0500016
4.83213e-08
-4.34013e-07
0.0500019
3.69894e-08
-2.712e-07
0.050002
1.86134e-08
-1.02392e-07
0.050002
7.04052e-09
-4.13658e-08
0.050002
4.61334e-09
-2.49256e-08
0.050002
2.47937e-09
-1.17423e-08
3.50712e-10
-2.61117e-09
0.0500003
-1.41328e-07
-3.38673e-07
0.0500007
-1.45403e-07
-3.70755e-07
0.0500011
-1.61665e-07
-4.01883e-07
0.0500016
-1.78398e-07
-4.34537e-07
0.0500019
-1.07217e-07
-2.71289e-07
0.050002
-3.69073e-08
-1.01959e-07
0.050002
-1.5006e-08
-4.11813e-08
0.050002
-9.12311e-09
-2.5051e-08
0.050002
-3.91449e-09
-1.16752e-08
-9.09811e-10
-2.55341e-09
0.0500004
-3.21121e-07
-3.38636e-07
0.0500007
-3.39829e-07
-3.71175e-07
0.0500011
-3.73408e-07
-4.01616e-07
0.0500016
-4.05224e-07
-4.34044e-07
0.0500019
-2.48909e-07
-2.71252e-07
0.050002
-9.04464e-08
-1.02073e-07
0.050002
-3.61275e-08
-4.13312e-08
0.050002
-2.24663e-08
-2.52516e-08
0.050002
-1.01299e-08
-1.15937e-08
-2.04187e-09
-2.4828e-09
0.0500004
-5.13995e-07
-3.38704e-07
0.0500007
-5.24907e-07
-3.71043e-07
0.0500012
-5.91358e-07
-4.01513e-07
0.0500016
-6.35474e-07
-4.3429e-07
0.0500019
-3.87572e-07
-2.71392e-07
0.050002
-1.39331e-07
-1.01936e-07
0.050002
-5.43666e-08
-4.12934e-08
0.050002
-3.43951e-08
-2.53441e-08
0.050002
-1.56027e-08
-1.15476e-08
-2.86175e-09
-2.42636e-09
0.0500004
-7.29931e-07
-3.38764e-07
0.0500007
-6.94698e-07
-3.71311e-07
0.0500012
-8.19228e-07
-4.01263e-07
0.0500016
-8.66368e-07
-4.33983e-07
0.0500019
-5.18262e-07
-2.71405e-07
0.050002
-1.81762e-07
-1.01992e-07
0.050002
-7.00758e-08
-4.14563e-08
0.050002
-4.53288e-08
-2.55166e-08
0.050002
-2.05311e-08
-1.15016e-08
-3.40026e-09
-2.4054e-09
0.0499994
-3.38745e-07
0.0499989
-3.71124e-07
0.0499983
-4.01434e-07
0.0499977
-4.34173e-07
0.0499973
-2.71375e-07
0.0499972
-1.018e-07
0.0499971
-4.13581e-08
0.0499971
-2.55402e-08
0.0499971
-1.14913e-08
-2.3854e-09
0.0499994
8.16754e-07
-5.25383e-07
0.0499987
7.94707e-07
-5.45358e-07
0.049998
9.17817e-07
-6.10486e-07
0.0499973
9.6678e-07
-6.54553e-07
0.0499968
5.84609e-07
-4.02496e-07
0.0499967
2.09104e-07
-1.4771e-07
0.0499966
8.0316e-08
-5.79e-08
0.0499966
5.1707e-08
-3.56843e-08
0.0499966
2.38499e-08
-1.66803e-08
3.97181e-09
-3.29322e-09
0.0500004
5.90656e-07
-5.25401e-07
0.0500008
6.27204e-07
-5.45587e-07
0.0500012
6.88185e-07
-6.10347e-07
0.0500016
7.34521e-07
-6.54341e-07
0.0500019
4.57146e-07
-4.02364e-07
0.050002
1.70701e-07
-1.47618e-07
0.050002
6.61306e-08
-5.7777e-08
0.050002
4.18158e-08
-3.56867e-08
0.050002
1.96391e-08
-1.67171e-08
3.55043e-09
-3.30266e-09
0.0500004
3.90956e-07
-5.2533e-07
0.0500007
4.43286e-07
-5.45281e-07
0.0500012
4.69141e-07
-6.10509e-07
0.0500016
5.02872e-07
-6.54901e-07
0.0500019
3.20956e-07
-4.02703e-07
0.050002
1.25133e-07
-1.4767e-07
0.050002
4.91776e-08
-5.78894e-08
0.050002
3.07735e-08
-3.58087e-08
0.050002
1.47202e-08
-1.67214e-08
2.78536e-09
-3.30534e-09
0.0500004
2.07222e-07
-5.25406e-07
0.0500007
2.49622e-07
-5.45589e-07
0.0500012
2.56877e-07
-6.10371e-07
0.0500016
2.7469e-07
-6.54512e-07
0.0500019
1.80307e-07
-4.02194e-07
0.050002
7.35038e-08
-1.4717e-07
0.050002
2.87465e-08
-5.76651e-08
0.050002
1.79145e-08
-3.58314e-08
0.050002
8.81968e-09
-1.67016e-08
1.66304e-09
-3.2812e-09
0.0500004
3.23161e-08
-5.25254e-07
0.0500007
5.18215e-08
-5.45369e-07
0.0500012
4.76409e-08
-6.10512e-07
0.0500016
4.84533e-08
-6.54922e-07
0.0500019
3.70982e-08
-4.0266e-07
0.050002
1.87519e-08
-1.47539e-07
0.050002
6.96506e-09
-5.79588e-08
0.050002
4.43487e-09
-3.60887e-08
0.050002
2.5231e-09
-1.67405e-08
4.0506e-10
-3.27169e-09
0.0500004
-1.41252e-07
-5.25379e-07
0.0500007
-1.45493e-07
-5.45604e-07
0.0500012
-1.61608e-07
-6.10342e-07
0.0500016
-1.7835e-07
-6.54866e-07
0.0500019
-1.07338e-07
-4.02271e-07
0.050002
-3.69916e-08
-1.46828e-07
0.050002
-1.51189e-08
-5.76369e-08
0.050002
-9.2455e-09
-3.61023e-08
0.050002
-3.85083e-09
-1.66326e-08
-8.44232e-10
-3.19512e-09
0.0500004
-3.21215e-07
-5.25336e-07
0.0500007
-3.39724e-07
-5.45742e-07
0.0500012
-3.73261e-07
-6.10146e-07
0.0500016
-4.05392e-07
-6.54624e-07
0.0500019
-2.49002e-07
-4.02594e-07
0.050002
-9.03023e-08
-1.47302e-07
0.050002
-3.60774e-08
-5.79595e-08
0.050002
-2.25529e-08
-3.63096e-08
0.050002
-1.00798e-08
-1.66113e-08
-1.9825e-09
-3.17033e-09
0.0500004
-5.14131e-07
-5.25419e-07
0.0500007
-5.24889e-07
-5.45752e-07
0.0500012
-5.91211e-07
-6.10066e-07
0.0500016
-6.35545e-07
-6.54686e-07
0.0500019
-3.87579e-07
-4.02544e-07
0.050002
-1.3915e-07
-1.47058e-07
0.050002
-5.42477e-08
-5.78167e-08
0.050002
-3.44336e-08
-3.63412e-08
0.050002
-1.55841e-08
-1.6593e-08
-2.83195e-09
-3.14183e-09
0.0500004
-7.29907e-07
-5.25456e-07
0.0500007
-6.94652e-07
-5.45778e-07
0.0500012
-8.19427e-07
-6.09987e-07
0.0500016
-8.66641e-07
-6.54673e-07
0.0500019
-5.1822e-07
-4.02628e-07
0.050002
-1.81532e-07
-1.47017e-07
0.050002
-6.99378e-08
-5.79237e-08
0.050002
-4.53417e-08
-3.64612e-08
0.050002
-2.05001e-08
-1.64921e-08
-3.37845e-09
-3.11063e-09
0.0499995
-5.25379e-07
0.0499989
-5.45823e-07
0.0499983
-6.10108e-07
0.0499977
-6.54564e-07
0.0499973
-4.02509e-07
0.0499972
-1.4699e-07
0.0499971
-5.78984e-08
0.0499971
-3.64871e-08
0.0499971
-1.65002e-08
-3.09324e-09
0.0499994
8.16836e-07
-7.35496e-07
0.0499988
7.9452e-07
-7.05003e-07
0.0499981
9.17868e-07
-8.28897e-07
0.0499973
9.66882e-07
-8.75863e-07
0.0499969
5.84522e-07
-5.25668e-07
0.0499967
2.09044e-07
-1.85933e-07
0.0499966
8.02452e-08
-7.18776e-08
0.0499966
5.16563e-08
-4.59663e-08
0.0499966
2.37971e-08
-2.10799e-08
3.938e-09
-3.60846e-09
0.0500004
5.90728e-07
-7.35551e-07
0.0500008
6.2723e-07
-7.05107e-07
0.0500012
6.88083e-07
-8.28802e-07
0.0500017
7.34272e-07
-8.75706e-07
0.0500019
4.57105e-07
-5.25508e-07
0.050002
1.70871e-07
-1.8579e-07
0.050002
6.61604e-08
-7.17964e-08
0.050002
4.17191e-08
-4.6038e-08
0.050002
1.95984e-08
-2.11581e-08
3.53272e-09
-3.62948e-09
0.0500004
3.90993e-07
-7.35409e-07
0.0500008
4.43323e-07
-7.05078e-07
0.0500012
4.69132e-07
-8.28918e-07
0.0500016
5.02672e-07
-8.76015e-07
0.0500019
3.20828e-07
-5.25916e-07
0.050002
1.25131e-07
-1.86074e-07
0.050002
4.90961e-08
-7.19318e-08
0.050002
3.06159e-08
-4.60509e-08
0.050002
1.46837e-08
-2.11058e-08
2.79011e-09
-3.61671e-09
0.0500004
2.07214e-07
-7.35523e-07
0.0500007
2.49321e-07
-7.05207e-07
0.0500012
2.56939e-07
-8.28671e-07
0.0500016
2.7494e-07
-8.75601e-07
0.0500019
1.80539e-07
-5.25485e-07
0.050002
7.36339e-08
-1.85731e-07
0.050002
2.87332e-08
-7.18001e-08
0.050002
1.77832e-08
-4.60779e-08
0.050002
8.80557e-09
-2.11276e-08
1.68108e-09
-3.62285e-09
0.0500004
3.22373e-08
-7.35381e-07
0.0500007
5.22512e-08
-7.04967e-07
0.0500012
4.76326e-08
-8.28905e-07
0.0500016
4.78804e-08
-8.76279e-07
0.0500019
3.67765e-08
-5.26052e-07
0.050002
1.87982e-08
-1.85976e-07
0.050002
6.94264e-09
-7.1902e-08
0.050002
4.25497e-09
-4.61615e-08
0.050002
2.5732e-09
-2.10613e-08
4.54352e-10
-3.58858e-09
0.0500004
-1.41323e-07
-7.35435e-07
0.0500007
-1.45879e-07
-7.05319e-07
0.0500012
-1.6136e-07
-8.28737e-07
0.0500016
-1.78e-07
-8.75778e-07
0.0500019
-1.07289e-07
-5.25535e-07
0.050002
-3.69614e-08
-1.8559e-07
0.050002
-1.51295e-08
-7.17619e-08
0.050002
-9.34717e-09
-4.61737e-08
0.050002
-3.78305e-09
-2.10372e-08
-8.07229e-10
-3.5624e-09
0.0500004
-3.21271e-07
-7.35498e-07
0.0500007
-3.3992e-07
-7.05113e-07
0.0500012
-3.73014e-07
-8.28652e-07
0.0500016
-4.05155e-07
-8.75945e-07
0.0500019
-2.49068e-07
-5.25802e-07
0.050002
-9.03815e-08
-1.85793e-07
0.050002
-3.62542e-08
-7.19044e-08
0.050002
-2.27305e-08
-4.62986e-08
0.050002
-1.00364e-08
-2.10437e-08
-1.96306e-09
-3.5577e-09
0.0500004
-5.14143e-07
-7.35463e-07
0.0500007
-5.24911e-07
-7.05069e-07
0.0500012
-5.91166e-07
-8.28859e-07
0.0500016
-6.35555e-07
-8.76179e-07
0.0500019
-3.87651e-07
-5.25709e-07
0.050002
-1.39084e-07
-1.85516e-07
0.050002
-5.43443e-08
-7.17469e-08
0.050002
-3.45508e-08
-4.63052e-08
0.050002
-1.54844e-08
-2.10126e-08
-2.80198e-09
-3.53645e-09
0.0500004
-7.29883e-07
-7.3544e-07
0.0500008
-6.94823e-07
-7.05236e-07
0.0500012
-8.19355e-07
-8.28788e-07
0.0500017
-8.66313e-07
-8.75868e-07
0.0500019
-5.18152e-07
-5.25668e-07
0.050002
-1.81638e-07
-1.85646e-07
0.050002
-7.00868e-08
-7.19063e-08
0.050002
-4.54398e-08
-4.64067e-08
0.050002
-2.0502e-08
-2.10144e-08
-3.37519e-09
-3.53278e-09
0.0499995
-7.35402e-07
0.0499989
-7.05081e-07
0.0499983
-8.28906e-07
0.0499977
-8.76013e-07
0.0499973
-5.25651e-07
0.0499972
-1.85523e-07
0.0499971
-7.18338e-08
0.0499971
-4.64012e-08
0.0499971
-2.09604e-08
-3.50115e-09
0.0499984
8.16803e-07
0.0499969
7.94533e-07
0.0499952
9.17893e-07
0.0499934
9.66803e-07
0.0499922
5.84394e-07
0.0499919
2.0905e-07
0.0499917
8.02737e-08
0.0499916