/*--------------------------------*- C++ -*----------------------------------*\
| =========                 |                                                 |
| \\      /  F ield         | OpenFOAM: The Open Source CFD Toolbox           |
|  \\    /   O peration     | Version:  1.7.x                                 |
|   \\  /    A nd           | Web:      www.OpenFOAM.com                      |
|    \\/     M anipulation  |                                                 |
\*---------------------------------------------------------------------------*/
FoamFile
{
    version     2.0;
    format      ascii;
    class       volVectorField;
    location    "0.5";
    object      U;
}
// * * * * * * * * * * * * * * * * * * * * * * * * * * * * * * * * * * * * * //

dimensions      [0 1 -1 0 0 0 0];

internalField   nonuniform List<vector> 
1000
(
(5.01343 1.09784e-05 9.91131e-06)
(4.90141 1.22093e-05 1.08888e-05)
(5.05985 1.48126e-05 1.3431e-05)
(5.09498 1.59089e-05 1.44836e-05)
(4.98129 1.0453e-05 9.48374e-06)
(4.9509 4.14287e-06 3.72905e-06)
(4.99223 1.48691e-06 1.33512e-06)
(5.01059 8.16633e-07 7.39437e-07)
(5.00317 3.74763e-07 3.38217e-07)
(4.99761 7.20722e-08 6.36215e-08)
(5.01349 1.65533e-05 9.90884e-06)
(4.90156 1.73449e-05 1.08963e-05)
(5.0601 1.95448e-05 1.34326e-05)
(5.09536 2.06003e-05 1.44747e-05)
(4.98178 1.28059e-05 9.47936e-06)
(4.95142 4.63314e-06 3.7291e-06)
(4.99277 1.68783e-06 1.33587e-06)
(5.01114 1.08843e-06 7.42676e-07)
(5.00372 5.11787e-07 3.41848e-07)
(4.99816 8.96589e-08 6.53852e-08)
(5.01349 9.31742e-06 9.90827e-06)
(4.90156 9.60697e-06 1.08946e-05)
(5.0601 9.8881e-06 1.34337e-05)
(5.09536 1.05254e-05 1.44778e-05)
(4.98178 6.4237e-06 9.48285e-06)
(4.95142 2.31244e-06 3.73058e-06)
(4.99277 9.54229e-07 1.33591e-06)
(5.01114 6.79285e-07 7.43104e-07)
(5.00372 3.15022e-07 3.42543e-07)
(4.99816 5.30089e-08 6.55855e-08)
(5.01349 5.80663e-06 9.90867e-06)
(4.90156 7.08039e-06 1.08971e-05)
(5.0601 7.73073e-06 1.34316e-05)
(5.09536 8.44983e-06 1.44745e-05)
(4.98177 5.66017e-06 9.48311e-06)
(4.95142 2.36464e-06 3.73236e-06)
(4.99277 9.44998e-07 1.33586e-06)
(5.01114 5.63054e-07 7.42413e-07)
(5.00372 2.56879e-07 3.43473e-07)
(4.99816 4.71701e-08 6.61722e-08)
(5.01349 2.39107e-06 9.91123e-06)
(4.90156 3.13954e-06 1.08958e-05)
(5.0601 3.04416e-06 1.34282e-05)
(5.09536 3.09155e-06 1.44743e-05)
(4.98177 1.94347e-06 9.4843e-06)
(4.95142 7.00017e-07 3.73251e-06)
(4.99277 2.50494e-07 1.33534e-06)
(5.01114 2.09413e-07 7.41621e-07)
(5.00372 1.03286e-07 3.43782e-07)
(4.99816 1.29613e-08 6.68006e-08)
(5.01349 -1.09061e-06 9.90874e-06)
(4.90156 -1.02727e-06 1.08928e-05)
(5.0601 -1.11299e-06 1.34322e-05)
(5.09536 -1.10258e-06 1.44799e-05)
(4.98177 -4.3706e-07 9.48721e-06)
(4.95142 -4.83117e-09 3.73303e-06)
(4.99277 1.37077e-08 1.33402e-06)
(5.01114 1.16092e-08 7.41277e-07)
(5.00372 -1.92995e-09 3.4446e-07)
(4.99816 -5.85939e-09 6.69957e-08)
(5.01349 -4.47546e-06 9.91004e-06)
(4.90156 -5.0221e-06 1.08958e-05)
(5.0601 -5.80779e-06 1.34304e-05)
(5.09536 -6.44228e-06 1.44764e-05)
(4.98177 -4.1492e-06 9.48827e-06)
(4.95142 -1.65918e-06 3.73574e-06)
(4.99277 -6.66808e-07 1.33436e-06)
(5.01114 -3.48113e-07 7.41098e-07)
(5.00372 -1.61636e-07 3.44274e-07)
(4.99816 -3.99093e-08 6.66755e-08)
(5.01349 -7.88777e-06 9.90904e-06)
(4.90156 -7.64127e-06 1.09011e-05)
(5.0601 -8.12622e-06 1.34313e-05)
(5.09536 -8.72759e-06 1.447e-05)
(4.98178 -5.1452e-06 9.48421e-06)
(4.95142 -1.75514e-06 3.73742e-06)
(4.99277 -7.34348e-07 1.33635e-06)
(5.01114 -4.95394e-07 7.41065e-07)
(5.00372 -2.29758e-07 3.44877e-07)
(4.99816 -4.40175e-08 6.7312e-08)
(5.01349 -1.46937e-05 9.91018e-06)
(4.90156 -1.49843e-05 1.08937e-05)
(5.0601 -1.72593e-05 1.34319e-05)
(5.09536 -1.82688e-05 1.44779e-05)
(4.98178 -1.12113e-05 9.49055e-06)
(4.95142 -3.96302e-06 3.73907e-06)
(4.99277 -1.43931e-06 1.33704e-06)
(5.01114 -9.18154e-07 7.41716e-07)
(5.00372 -4.32698e-07 3.44684e-07)
(4.99816 -7.95232e-08 6.69651e-08)
(5.01344 -9.86377e-06 9.90862e-06)
(4.90143 -1.08076e-05 1.08949e-05)
(5.05987 -1.33588e-05 1.34342e-05)
(5.09501 -1.44047e-05 1.44778e-05)
(4.98134 -9.42225e-06 9.49003e-06)
(4.95095 -3.70296e-06 3.74081e-06)
(4.99228 -1.32577e-06 1.33826e-06)
(5.01064 -7.28268e-07 7.40064e-07)
(5.00322 -3.38062e-07 3.43122e-07)
(4.99766 -6.82703e-08 6.67247e-08)
(5.01349 1.0976e-05 1.48546e-05)
(4.90155 1.22169e-05 1.53117e-05)
(5.06008 1.48143e-05 1.75646e-05)
(5.09533 1.59001e-05 1.85709e-05)
(4.98173 1.04487e-05 1.14568e-05)
(4.95138 4.14296e-06 4.08477e-06)
(4.99272 1.48768e-06 1.48199e-06)
(5.01109 8.19882e-07 9.70741e-07)
(5.00367 3.784e-07 4.53624e-07)
(4.99811 7.38281e-08 7.63059e-08)
(5.01355 1.65504e-05 1.48516e-05)
(4.9017 1.73509e-05 1.53173e-05)
(5.06033 1.95478e-05 1.75674e-05)
(5.09571 2.05952e-05 1.85659e-05)
(4.98222 1.28056e-05 1.14568e-05)
(4.9519 4.63512e-06 4.08684e-06)
(4.99326 1.6888e-06 1.48305e-06)
(5.01163 1.09216e-06 9.74496e-07)
(5.00422 5.16142e-07 4.58007e-07)
(4.99866 9.16387e-08 7.8269e-08)
(5.01355 9.31732e-06 1.48565e-05)
(4.9017 9.60801e-06 1.53128e-05)
(5.06033 9.88759e-06 1.75588e-05)
(5.09571 1.05261e-05 1.85656e-05)
(4.98222 6.42865e-06 1.14589e-05)
(4.9519 2.31657e-06 4.08482e-06)
(4.99326 9.54625e-07 1.47858e-06)
(5.01163 6.79164e-07 9.69966e-07)
(5.00422 3.16724e-07 4.55162e-07)
(4.99866 5.38182e-08 7.7088e-08)
(5.01355 5.80963e-06 1.48555e-05)
(4.90169 7.08179e-06 1.53091e-05)
(5.06033 7.72557e-06 1.75628e-05)
(5.09571 8.4469e-06 1.85754e-05)
(4.98222 5.66249e-06 1.1466e-05)
(4.9519 2.36727e-06 4.08934e-06)
(4.99325 9.44769e-07 1.48052e-06)
(5.01163 5.61708e-07 9.69613e-07)
(5.00422 2.58185e-07 4.56168e-07)
(4.99866 4.84103e-08 7.79112e-08)
(5.01355 2.39116e-06 1.48617e-05)
(4.90169 3.13535e-06 1.53036e-05)
(5.06033 3.04488e-06 1.75564e-05)
(5.09571 3.09723e-06 1.85718e-05)
(4.98222 1.94791e-06 1.14592e-05)
(4.9519 7.00957e-07 4.0829e-06)
(4.99325 2.48769e-07 1.47703e-06)
(5.01163 2.0833e-07 9.66315e-07)
(5.00422 1.04312e-07 4.55029e-07)
(4.99866 1.38037e-08 7.80918e-08)
(5.01355 -1.0918e-06 1.48544e-05)
(4.90169 -1.02726e-06 1.53037e-05)
(5.06033 -1.11086e-06 1.75636e-05)
(5.09571 -1.1005e-06 1.8581e-05)
(4.98222 -4.33201e-07 1.14696e-05)
(4.9519 -1.68015e-09 4.0903e-06)
(4.99325 1.26838e-08 1.47886e-06)
(5.01163 1.10638e-08 9.64782e-07)
(5.00422 -1.4417e-09 4.55054e-07)
(4.99866 -5.98608e-09 7.86557e-08)
(5.01355 -4.47519e-06 1.48561e-05)
(4.90169 -5.01391e-06 1.53086e-05)
(5.06033 -5.80885e-06 1.7564e-05)
(5.09571 -6.45272e-06 1.85705e-05)
(4.98222 -4.15289e-06 1.14581e-05)
(4.9519 -1.65532e-06 4.0872e-06)
(4.99325 -6.64734e-07 1.47815e-06)
(5.01163 -3.48448e-07 9.62565e-07)
(5.00422 -1.61266e-07 4.54478e-07)
(4.99866 -3.96066e-08 7.87668e-08)
(5.01355 -7.88771e-06 1.48548e-05)
(4.90169 -7.64364e-06 1.53132e-05)
(5.06033 -8.12502e-06 1.75625e-05)
(5.09571 -8.72693e-06 1.85642e-05)
(4.98222 -5.14394e-06 1.14599e-05)
(4.9519 -1.75252e-06 4.09503e-06)
(4.99326 -7.31998e-07 1.48252e-06)
(5.01163 -4.94904e-07 9.629e-07)
(5.00422 -2.29397e-07 4.561e-07)
(4.99866 -4.37454e-08 7.97695e-08)
(5.01355 -1.46942e-05 1.48569e-05)
(4.9017 -1.49907e-05 1.53134e-05)
(5.06033 -1.72567e-05 1.75617e-05)
(5.09571 -1.82615e-05 1.85607e-05)
(4.98222 -1.1206e-05 1.14569e-05)
(4.9519 -3.95995e-06 4.09245e-06)
(4.99326 -1.43752e-06 1.47988e-06)
(5.01163 -9.19194e-07 9.60365e-07)
(5.00422 -4.34474e-07 4.54412e-07)
(4.99866 -8.01151e-08 7.88548e-08)
(5.01349 -9.86532e-06 1.48577e-05)
(4.90156 -1.08063e-05 1.53108e-05)
(5.0601 -1.33566e-05 1.75612e-05)
(5.09536 -1.44048e-05 1.856e-05)
(4.98178 -9.42277e-06 1.14541e-05)
(4.95142 -3.70122e-06 4.09145e-06)
(4.99277 -1.32454e-06 1.48064e-06)
(5.01114 -7.29923e-07 9.602e-07)
(5.00372 -3.39626e-07 4.54748e-07)
(4.99816 -6.85173e-08 7.92249e-08)
(5.01349 1.09755e-05 8.17886e-06)
(4.90155 1.22148e-05 8.17994e-06)
(5.06008 1.48153e-05 8.60106e-06)
(5.09533 1.59036e-05 9.18906e-06)
(4.98173 1.04525e-05 5.51158e-06)
(4.95138 4.14459e-06 1.92259e-06)
(4.99272 1.48783e-06 7.89518e-07)
(5.01109 8.20351e-07 5.80754e-07)
(5.00367 3.79131e-07 2.65713e-07)
(4.99811 7.40284e-08 4.08781e-08)
(5.01355 1.65553e-05 8.17869e-06)
(4.9017 1.7346e-05 8.18118e-06)
(5.06033 1.95391e-05 8.60045e-06)
(5.09571 2.05952e-05 9.18947e-06)
(4.98222 1.2808e-05 5.51617e-06)
(4.9519 4.63326e-06 1.92655e-06)
(4.99326 1.68444e-06 7.89891e-07)
(5.01163 1.08766e-06 5.80658e-07)
(5.00422 5.13324e-07 2.67442e-07)
(4.99866 9.04479e-08 4.16856e-08)
(5.01355 9.32134e-06 8.1825e-06)
(4.90169 9.59902e-06 8.17311e-06)
(5.06033 9.88397e-06 8.59682e-06)
(5.09571 1.05358e-05 9.19849e-06)
(4.98222 6.43412e-06 5.5212e-06)
(4.9519 2.31582e-06 1.92555e-06)
(4.99326 9.52109e-07 7.87143e-07)
(5.01163 6.74574e-07 5.75903e-07)
(5.00422 3.1327e-07 2.63902e-07)
(4.99866 5.26744e-08 4.05121e-08)
(5.01355 5.81193e-06 8.18007e-06)
(4.90169 7.07135e-06 8.17043e-06)
(5.06032 7.72868e-06 8.60117e-06)
(5.09571 8.45664e-06 9.20614e-06)
(4.98221 5.66144e-06 5.5257e-06)
(4.9519 2.3634e-06 1.92883e-06)
(4.99325 9.43787e-07 7.87635e-07)
(5.01163 5.59532e-07 5.74629e-07)
(5.00422 2.5681e-07 2.64681e-07)
(4.99866 4.81953e-08 4.1026e-08)
(5.01355 2.39001e-06 8.18317e-06)
(4.90169 3.13423e-06 8.16275e-06)
(5.06032 3.04508e-06 8.60327e-06)
(5.09571 3.09738e-06 9.20857e-06)
(4.98221 1.94743e-06 5.51742e-06)
(4.9519 7.01232e-07 1.92199e-06)
(4.99325 2.48938e-07 7.84291e-07)
(5.01163 2.04615e-07 5.70423e-07)
(5.00422 1.02186e-07 2.62671e-07)
(4.99866 1.37147e-08 4.09395e-08)
(5.01355 -1.09626e-06 8.17881e-06)
(4.90169 -1.02235e-06 8.16356e-06)
(5.06032 -1.10548e-06 8.60868e-06)
(5.09571 -1.10397e-06 9.21369e-06)
(4.98221 -4.38387e-07 5.52525e-06)
(4.9519 -6.05621e-10 1.93204e-06)
(4.99325 1.48032e-08 7.88308e-07)
(5.01163 7.85245e-09 5.67267e-07)
(5.00422 -2.48709e-09 2.61443e-07)
(4.99866 -5.19152e-09 4.12044e-08)
(5.01355 -4.47506e-06 8.17981e-06)
(4.90169 -5.01269e-06 8.16785e-06)
(5.06032 -5.80906e-06 8.60764e-06)
(5.09571 -6.45953e-06 9.19924e-06)
(4.98221 -4.15954e-06 5.5114e-06)
(4.9519 -1.65495e-06 1.93233e-06)
(4.99325 -6.63393e-07 7.91463e-07)
(5.01163 -3.50098e-07 5.65614e-07)
(5.00422 -1.60621e-07 2.62077e-07)
(4.99866 -3.87917e-08 4.21315e-08)
(5.01355 -7.88701e-06 8.17903e-06)
(4.90169 -7.6367e-06 8.16714e-06)
(5.06033 -8.1289e-06 8.60614e-06)
(5.09571 -8.73822e-06 9.20064e-06)
(4.98222 -5.14735e-06 5.519e-06)
(4.9519 -1.75061e-06 1.9398e-06)
(4.99325 -7.3295e-07 7.92196e-07)
(5.01163 -4.97737e-07 5.62841e-07)
(5.00422 -2.29898e-07 2.62039e-07)
(4.99866 -4.39685e-08 4.2443e-08)
(5.01355 -1.46908e-05 8.17863e-06)
(4.90169 -1.49868e-05 8.16873e-06)
(5.06033 -1.72606e-05 8.60541e-06)
(5.09571 -1.8273e-05 9.19344e-06)
(4.98222 -1.12171e-05 5.51608e-06)
(4.9519 -3.96658e-06 1.94273e-06)
(4.99326 -1.44119e-06 7.93868e-07)
(5.01163 -9.20863e-07 5.60955e-07)
(5.00422 -4.34057e-07 2.6176e-07)
(4.99866 -8.00805e-08 4.25151e-08)
(5.01349 -9.86291e-06 8.17891e-06)
(4.90156 -1.081e-05 8.16645e-06)
(5.0601 -1.3359e-05 8.60802e-06)
(5.09536 -1.44048e-05 9.19746e-06)
(4.98178 -9.42448e-06 5.51781e-06)
(4.95142 -3.70359e-06 1.94167e-06)
(4.99277 -1.32487e-06 7.92356e-07)
(5.01114 -7.28384e-07 5.6084e-07)
(5.00372 -3.37694e-07 2.62599e-07)
(4.99816 -6.78876e-08 4.2677e-08)
(5.01349 1.09757e-05 4.88837e-06)
(4.90155 1.22179e-05 5.73082e-06)
(5.06008 1.48133e-05 6.45638e-06)
(5.09532 1.58997e-05 7.11873e-06)
(4.98173 1.04522e-05 4.6927e-06)
(4.95138 4.14613e-06 1.90306e-06)
(4.99272 1.4877e-06 7.47379e-07)
(5.01109 8.19656e-07 4.57725e-07)
(5.00367 3.8006e-07 2.048e-07)
(4.99811 7.46223e-08 3.3011e-08)
(5.01355 1.65539e-05 4.89102e-06)
(4.90169 1.73438e-05 5.73157e-06)
(5.06033 1.95431e-05 6.45245e-06)
(5.09571 2.06038e-05 7.11728e-06)
(4.98222 1.28141e-05 4.69573e-06)
(4.9519 4.63725e-06 1.90595e-06)
(4.99325 1.68605e-06 7.47189e-07)
(5.01163 1.08717e-06 4.56372e-07)
(5.00422 5.14252e-07 2.06106e-07)
(4.99866 9.12367e-08 3.42519e-08)
(5.01355 9.3187e-06 4.89251e-06)
(4.90169 9.59725e-06 5.72e-06)
(5.06033 9.88832e-06 6.45683e-06)
(5.09571 1.05428e-05 7.12867e-06)
(4.98221 6.43819e-06 4.69566e-06)
(4.9519 2.31883e-06 1.90278e-06)
(4.99325 9.52361e-07 7.4644e-07)
(5.01163 6.73149e-07 4.54257e-07)
(5.00422 3.13969e-07 2.04718e-07)
(4.99866 5.31659e-08 3.40412e-08)
(5.01355 5.81031e-06 4.89135e-06)
(4.90169 7.07141e-06 5.72089e-06)
(5.06032 7.732e-06 6.45998e-06)
(5.09571 8.45698e-06 7.12776e-06)
(4.98221 5.6587e-06 4.69171e-06)
(4.9519 2.36371e-06 1.90236e-06)
(4.99325 9.41907e-07 7.44219e-07)
(5.01163 5.56213e-07 4.50864e-07)
(5.00422 2.56939e-07 2.0485e-07)
(4.99866 4.88227e-08 3.46838e-08)
(5.01355 2.38989e-06 4.88567e-06)
(4.90169 3.12848e-06 5.72619e-06)
(5.06032 3.05238e-06 6.46424e-06)
(5.09571 3.10476e-06 7.12697e-06)
(4.98221 1.94745e-06 4.69821e-06)
(4.9519 7.0416e-07 1.91359e-06)
(4.99325 2.49423e-07 7.46882e-07)
(5.01163 2.00954e-07 4.47351e-07)
(5.00422 1.01057e-07 2.0432e-07)
(4.99866 1.39636e-08 3.51732e-08)
(5.01355 -1.09516e-06 4.88898e-06)
(4.90169 -1.02216e-06 5.7288e-06)
(5.06032 -1.1065e-06 6.45919e-06)
(5.09571 -1.10987e-06 7.10813e-06)
(4.98221 -4.39241e-07 4.68283e-06)
(4.9519 8.64119e-09 1.91549e-06)
(4.99325 1.98597e-08 7.4987e-07)
(5.01163 6.23972e-09 4.44135e-07)
(5.00422 -2.0489e-09 2.05134e-07)
(4.99866 -4.80582e-09 3.64146e-08)
(5.01355 -4.47498e-06 4.88892e-06)
(4.90169 -5.01033e-06 5.72421e-06)
(5.06032 -5.8114e-06 6.4635e-06)
(5.09571 -6.46578e-06 7.11364e-06)
(4.98221 -4.15912e-06 4.68793e-06)
(4.9519 -1.64756e-06 1.9237e-06)
(4.99325 -6.60845e-07 7.53505e-07)
(5.01163 -3.52881e-07 4.42834e-07)
(5.00422 -1.6069e-07 2.05362e-07)
(4.99866 -3.83782e-08 3.68242e-08)
(5.01355 -7.88889e-06 4.88797e-06)
(4.90169 -7.64278e-06 5.72554e-06)
(5.06032 -8.12725e-06 6.46448e-06)
(5.09571 -8.73274e-06 7.10969e-06)
(4.98221 -5.13928e-06 4.68714e-06)
(4.9519 -1.74213e-06 1.92734e-06)
(4.99325 -7.296e-07 7.52197e-07)
(5.01163 -4.99577e-07 4.37713e-07)
(5.00422 -2.29719e-07 2.04506e-07)
(4.99866 -4.3366e-08 3.70314e-08)
(5.01355 -1.46942e-05 4.89139e-06)
(4.90169 -1.49912e-05 5.71874e-06)
(5.06033 -1.72544e-05 6.46355e-06)
(5.09571 -1.82638e-05 7.11631e-06)
(4.98222 -1.12062e-05 4.69223e-06)
(4.9519 -3.95734e-06 1.9284e-06)
(4.99325 -1.43703e-06 7.50788e-07)
(5.01163 -9.2108e-07 4.34655e-07)
(5.00422 -4.33867e-07 2.03709e-07)
(4.99866 -7.98782e-08 3.72241e-08)
(5.01349 -9.86498e-06 4.89018e-06)
(4.90156 -1.08084e-05 5.72167e-06)
(5.0601 -1.33535e-05 6.46474e-06)
(5.09536 -1.43999e-05 7.11092e-06)
(4.98177 -9.42e-06 4.68871e-06)
(4.95142 -3.70153e-06 1.93044e-06)
(4.99277 -1.32571e-06 7.52202e-07)
(5.01114 -7.29897e-07 4.34298e-07)
(5.00372 -3.38735e-07 2.05169e-07)
(4.99816 -6.8356e-08 3.77382e-08)
(5.01349 1.09781e-05 1.6558e-06)
(4.90154 1.22154e-05 1.97556e-06)
(5.06007 1.48112e-05 1.98747e-06)
(5.09532 1.59015e-05 2.01197e-06)
(4.98173 1.04547e-05 1.1511e-06)
(4.95138 4.14687e-06 3.20887e-07)
(4.99272 1.48733e-06 8.88567e-08)
(5.01109 8.18882e-07 1.20698e-07)
(5.00367 3.80376e-07 5.67172e-08)
(4.99811 7.52499e-08 -3.6128e-10)
(5.01355 1.65594e-05 1.65583e-06)
(4.90169 1.73351e-05 1.97202e-06)
(5.06033 1.95393e-05 1.98737e-06)
(5.09571 2.06046e-05 2.01652e-06)
(4.98222 1.28102e-05 1.15504e-06)
(4.9519 4.63237e-06 3.2149e-07)
(4.99325 1.6832e-06 8.70356e-08)
(5.01163 1.08407e-06 1.19607e-07)
(5.00422 5.132e-07 5.77575e-08)
(4.99866 9.14614e-08 5.01246e-10)
(5.01355 9.32167e-06 1.65596e-06)
(4.90169 9.58833e-06 1.97169e-06)
(5.06032 9.89151e-06 1.98546e-06)
(5.09571 1.05463e-05 2.01528e-06)
(4.98221 6.4301e-06 1.15416e-06)
(4.9519 2.31224e-06 3.21477e-07)
(4.99325 9.49152e-07 8.71266e-08)
(5.01163 6.6907e-07 1.15853e-07)
(5.00422 3.12022e-07 5.56211e-08)
(4.99866 5.3115e-08 3.81937e-10)
(5.01355 5.80509e-06 1.65429e-06)
(4.90169 7.07754e-06 1.96779e-06)
(5.06032 7.73609e-06 1.99452e-06)
(5.09571 8.45493e-06 2.0232e-06)
(4.98221 5.66399e-06 1.15431e-06)
(4.9519 2.37421e-06 3.24688e-07)
(4.99325 9.44222e-07 8.77574e-08)
(5.01163 5.52619e-07 1.1235e-07)
(5.00422 2.56399e-07 5.46311e-08)
(4.99866 4.9328e-08 6.93313e-10)
(5.01355 2.38765e-06 1.65216e-06)
(4.90169 3.14215e-06 1.97987e-06)
(5.06032 3.04429e-06 1.98784e-06)
(5.09571 3.07777e-06 1.99873e-06)
(4.98221 1.93853e-06 1.14677e-06)
(4.9519 7.14343e-07 3.35876e-07)
(4.99325 2.54587e-07 9.30323e-08)
(5.01163 1.97884e-07 1.0917e-07)
(5.00422 1.02463e-07 5.60645e-08)
(4.99866 1.54394e-08 2.15999e-09)
(5.01355 -1.09301e-06 1.65587e-06)
(4.90169 -1.02432e-06 1.97497e-06)
(5.06032 -1.10623e-06 1.98813e-06)
(5.09571 -1.11729e-06 1.99732e-06)
(4.98221 -4.48672e-07 1.14379e-06)
(4.9519 9.50109e-09 3.39666e-07)
(4.99325 2.14178e-08 9.5352e-08)
(5.01163 3.33598e-09 1.05986e-07)
(5.00422 -1.42979e-09 5.67585e-08)
(4.99866 -3.54126e-09 3.55692e-09)
(5.01355 -4.47606e-06 1.65517e-06)
(4.90169 -5.01594e-06 1.9696e-06)
(5.06032 -5.80376e-06 1.99273e-06)
(5.09571 -6.45795e-06 2.0035e-06)
(4.98221 -4.15523e-06 1.14746e-06)
(4.9519 -1.64309e-06 3.42515e-07)
(4.99325 -6.61068e-07 9.21542e-08)
(5.01163 -3.56513e-07 1.0008e-07)
(5.00422 -1.61235e-07 5.47891e-08)
(4.99866 -3.81662e-08 3.1904e-09)
(5.01355 -7.88455e-06 1.65596e-06)
(4.90169 -7.64217e-06 1.97216e-06)
(5.06032 -8.12886e-06 1.99117e-06)
(5.09571 -8.73554e-06 1.99469e-06)
(4.98221 -5.14306e-06 1.14506e-06)
(4.9519 -1.74592e-06 3.48389e-07)
(4.99325 -7.35685e-07 9.39482e-08)
(5.01163 -5.05908e-07 9.73951e-08)
(5.00422 -2.31556e-07 5.60881e-08)
(4.99866 -4.35655e-08 4.30172e-09)
(5.01355 -1.46886e-05 1.65426e-06)
(4.90169 -1.49906e-05 1.97587e-06)
(5.06033 -1.72601e-05 1.99516e-06)
(5.09571 -1.82713e-05 1.99215e-06)
(4.98222 -1.12148e-05 1.14486e-06)
(4.9519 -3.96291e-06 3.50766e-07)
(4.99325 -1.4409e-06 9.32993e-08)
(5.01163 -9.24174e-07 9.3109e-08)
(5.00422 -4.33358e-07 5.57894e-08)
(4.99866 -7.93651e-08 4.84202e-09)
(5.01349 -9.86409e-06 1.65657e-06)
(4.90156 -1.0807e-05 1.97364e-06)
(5.0601 -1.33576e-05 1.99035e-06)
(5.09536 -1.44097e-05 1.98669e-06)
(4.98177 -9.42726e-06 1.1413e-06)
(4.95142 -3.70096e-06 3.51304e-07)
(4.99277 -1.32316e-06 9.40897e-08)
(5.01114 -7.28645e-07 9.3397e-08)
(5.00372 -3.36181e-07 5.7836e-08)
(4.99816 -6.7355e-08 5.88202e-09)
(5.01349 1.09757e-05 -1.65286e-06)
(4.90154 1.22144e-05 -1.97832e-06)
(5.06007 1.48131e-05 -1.98943e-06)
(5.09532 1.59041e-05 -2.0023e-06)
(4.98173 1.04559e-05 -1.12246e-06)
(4.95138 4.14654e-06 -3.51013e-07)
(4.99272 1.4858e-06 -1.36787e-07)
(5.01109 8.1854e-07 -6.84538e-08)
(5.00367 3.81083e-07 -4.37548e-08)
(4.99811 7.54744e-08 -1.80833e-08)
(5.01355 1.65541e-05 -1.65357e-06)
(4.90169 1.73399e-05 -1.97795e-06)
(5.06033 1.9541e-05 -1.98853e-06)
(5.09571 2.06069e-05 -2.00163e-06)
(4.98222 1.2817e-05 -1.11923e-06)
(4.9519 4.63767e-06 -3.48233e-07)
(4.99325 1.68425e-06 -1.37828e-07)
(5.01163 1.08231e-06 -6.89437e-08)
(5.00422 5.1316e-07 -4.32328e-08)
(4.99866 9.19915e-08 -1.81836e-08)
(5.01355 9.31716e-06 -1.65614e-06)
(4.90169 9.59302e-06 -1.97201e-06)
(5.06032 9.89549e-06 -1.98605e-06)
(5.09571 1.05495e-05 -2.0073e-06)
(4.98221 6.43747e-06 -1.12507e-06)
(4.9519 2.32205e-06 -3.47766e-07)
(4.99325 9.53094e-07 -1.36209e-07)
(5.01163 6.65911e-07 -7.23181e-08)
(5.00422 3.10858e-07 -4.4303e-08)
(4.99866 5.33711e-08 -1.744e-08)
(5.01355 5.8065e-06 -1.65657e-06)
(4.90169 7.07961e-06 -1.97086e-06)
(5.06032 7.7344e-06 -1.98515e-06)
(5.09571 8.44042e-06 -2.01261e-06)
(4.98221 5.65131e-06 -1.1262e-06)
(4.9519 2.37812e-06 -3.387e-07)
(4.99325 9.47826e-07 -1.31138e-07)
(5.01163 5.49538e-07 -7.381e-08)
(5.00422 2.57391e-07 -4.37521e-08)
(4.99866 5.06101e-08 -1.70053e-08)
(5.01355 2.39147e-06 -1.65395e-06)
(4.90169 3.13565e-06 -1.97458e-06)
(5.06032 3.04598e-06 -1.98514e-06)
(5.09571 3.07888e-06 -2.01716e-06)
(4.98221 1.93694e-06 -1.1328e-06)
(4.9519 7.19139e-07 -3.36178e-07)
(4.99325 2.57017e-07 -1.29198e-07)
(5.01163 1.94583e-07 -7.66999e-08)
(5.00422 1.03186e-07 -4.31658e-08)
(4.99866 1.68292e-08 -1.57869e-08)
(5.01355 -1.09215e-06 -1.65445e-06)
(4.90169 -1.03244e-06 -1.97989e-06)
(5.06032 -1.10162e-06 -1.97849e-06)
(5.09571 -1.10508e-06 -2.00793e-06)
(4.98221 -4.38552e-07 -1.12595e-06)
(4.9519 1.52883e-08 -3.32259e-07)
(4.99325 1.89891e-08 -1.32069e-07)
(5.01163 -2.84446e-09 -8.29739e-08)
(5.00422 -3.32857e-09 -4.50904e-08)
(4.99866 -3.78089e-09 -1.60132e-08)
(5.01355 -4.47488e-06 -1.6572e-06)
(4.90169 -5.01314e-06 -1.97728e-06)
(5.06032 -5.80834e-06 -1.97937e-06)
(5.09571 -6.46839e-06 -2.01996e-06)
(4.98221 -4.15785e-06 -1.12706e-06)
(4.9519 -1.63883e-06 -3.20235e-07)
(4.99325 -6.6223e-07 -1.28254e-07)
(5.01163 -3.61454e-07 -8.77472e-08)
(5.00422 -1.61349e-07 -4.38032e-08)
(4.99866 -3.76229e-08 -1.47675e-08)
(5.01355 -7.8898e-06 -1.65491e-06)
(4.90169 -7.6365e-06 -1.98198e-06)
(5.06032 -8.12482e-06 -1.97682e-06)
(5.09571 -8.74408e-06 -2.01447e-06)
(4.98221 -5.14187e-06 -1.12645e-06)
(4.9519 -1.73388e-06 -3.21957e-07)
(4.99325 -7.28449e-07 -1.326e-07)
(5.01163 -5.06542e-07 -9.18437e-08)
(5.00422 -2.28726e-07 -4.30239e-08)
(4.99866 -4.17182e-08 -1.361e-08)
(5.01355 -1.46936e-05 -1.6572e-06)
(4.90169 -1.49897e-05 -1.98439e-06)
(5.06033 -1.72551e-05 -1.97387e-06)
(5.09571 -1.82716e-05 -2.01642e-06)
(4.98221 -1.12097e-05 -1.12831e-06)
(4.9519 -3.95426e-06 -3.1777e-07)
(4.99325 -1.43682e-06 -1.29483e-07)
(5.01163 -9.25058e-07 -9.33871e-08)
(5.00422 -4.32101e-07 -4.04212e-08)
(4.99866 -7.8295e-08 -1.2189e-08)
(5.01349 -9.86265e-06 -1.65852e-06)
(4.90156 -1.08106e-05 -1.98276e-06)
(5.0601 -1.33583e-05 -1.96983e-06)
(5.09536 -1.44052e-05 -2.01121e-06)
(4.98177 -9.42331e-06 -1.12495e-06)
(4.95142 -3.70081e-06 -3.17513e-07)
(4.99277 -1.32483e-06 -1.31553e-07)
(5.01114 -7.29581e-07 -9.54042e-08)
(5.00372 -3.36665e-07 -4.13549e-08)
(4.99816 -6.72996e-08 -1.22447e-08)
(5.01349 1.09774e-05 -4.8899e-06)
(4.90155 1.22158e-05 -5.73317e-06)
(5.06008 1.48122e-05 -6.45636e-06)
(5.09532 1.59024e-05 -7.1082e-06)
(4.98173 1.04582e-05 -4.66369e-06)
(4.95138 4.14983e-06 -1.92826e-06)
(4.99272 1.48639e-06 -7.88764e-07)
(5.01109 8.18436e-07 -4.12778e-07)
(5.00367 3.8091e-07 -1.94866e-07)
(4.99811 7.51436e-08 -4.98698e-08)
(5.01355 1.65561e-05 -4.88971e-06)
(4.90169 1.73415e-05 -5.72581e-06)
(5.06033 1.95428e-05 -6.45632e-06)
(5.09571 2.05998e-05 -7.11726e-06)
(4.98222 1.28078e-05 -4.66695e-06)
(4.9519 4.63579e-06 -1.92438e-06)
(4.99326 1.68388e-06 -7.86657e-07)
(5.01163 1.08026e-06 -4.13103e-07)
(5.00422 5.12647e-07 -1.94515e-07)
(4.99866 9.21088e-08 -4.95835e-08)
(5.01355 9.31866e-06 -4.89016e-06)
(4.90169 9.59542e-06 -5.72601e-06)
(5.06033 9.89489e-06 -6.45552e-06)
(5.09571 1.05353e-05 -7.12214e-06)
(4.98221 6.42315e-06 -4.67203e-06)
(4.9519 2.3218e-06 -1.92303e-06)
(4.99325 9.55848e-07 -7.85048e-07)
(5.01163 6.64216e-07 -4.14636e-07)
(5.00422 3.11522e-07 -1.93841e-07)
(4.99866 5.43072e-08 -4.87727e-08)
(5.01355 5.80728e-06 -4.88956e-06)
(4.90169 7.07496e-06 -5.72375e-06)
(5.06032 7.73701e-06 -6.45794e-06)
(5.09571 8.44508e-06 -7.12975e-06)
(4.98221 5.65625e-06 -4.67362e-06)
(4.9519 2.3858e-06 -1.91686e-06)
(4.99325 9.51254e-07 -7.82821e-07)
(5.01163 5.48237e-07 -4.1751e-07)
(5.00422 2.57556e-07 -1.93923e-07)
(4.99866 5.09866e-08 -4.83443e-08)
(5.01355 2.38977e-06 -4.89027e-06)
(4.90169 3.13312e-06 -5.73083e-06)
(5.06032 3.05096e-06 -6.45172e-06)
(5.09571 3.08244e-06 -7.11911e-06)
(4.98221 1.93878e-06 -4.66586e-06)
(4.9519 7.20772e-07 -1.91087e-06)
(4.99325 2.53651e-07 -7.82417e-07)
(5.01163 1.88707e-07 -4.20889e-07)
(5.00422 1.01109e-07 -1.94448e-07)
(4.99866 1.64288e-08 -4.81349e-08)
(5.01355 -1.09626e-06 -4.88951e-06)
(4.90169 -1.02702e-06 -5.72409e-06)
(5.06032 -1.10045e-06 -6.45617e-06)
(5.09571 -1.12012e-06 -7.13662e-06)
(4.98221 -4.42933e-07 -4.67526e-06)
(4.9519 2.54426e-08 -1.9096e-06)
(4.99325 2.23594e-08 -7.84478e-07)
(5.01163 -7.70196e-09 -4.26257e-07)
(5.00422 -2.08873e-09 -1.94776e-07)
(4.99866 -2.51536e-09 -4.76285e-08)
(5.01355 -4.47653e-06 -4.89117e-06)
(4.90169 -5.01803e-06 -5.72963e-06)
(5.06032 -5.80209e-06 -6.44977e-06)
(5.09571 -6.46448e-06 -7.13069e-06)
(4.98221 -4.15572e-06 -4.67096e-06)
(4.9519 -1.63278e-06 -1.90266e-06)
(4.99325 -6.61595e-07 -7.83447e-07)
(5.01163 -3.65361e-07 -4.29954e-07)
(5.00422 -1.59154e-07 -1.92462e-07)
(4.99866 -3.57621e-08 -4.57145e-08)
(5.01355 -7.88455e-06 -4.89108e-06)
(4.90169 -7.64929e-06 -5.72871e-06)
(5.06032 -8.12337e-06 -6.44868e-06)
(5.09571 -8.73199e-06 -7.13525e-06)
(4.98221 -5.1443e-06 -4.6769e-06)
(4.9519 -1.74345e-06 -1.90385e-06)
(4.99325 -7.36909e-07 -7.84196e-07)
(5.01163 -5.11557e-07 -4.31989e-07)
(5.00422 -2.28157e-07 -1.91132e-07)
(4.99866 -4.09852e-08 -4.42966e-08)
(5.01355 -1.46922e-05 -4.89015e-06)
(4.90169 -1.49914e-05 -5.74004e-06)
(5.06033 -1.72532e-05 -6.44275e-06)
(5.09571 -1.82682e-05 -7.12085e-06)
(4.98222 -1.12136e-05 -4.67411e-06)
(4.9519 -3.95863e-06 -1.90798e-06)
(4.99325 -1.43993e-06 -7.88844e-07)
(5.01163 -9.27777e-07 -4.35583e-07)
(5.00422 -4.31725e-07 -1.91195e-07)
(4.99866 -7.80222e-08 -4.41567e-08)
(5.01349 -9.86541e-06 -4.89086e-06)
(4.90156 -1.08054e-05 -5.7316e-06)
(5.0601 -1.33536e-05 -6.44628e-06)
(5.09536 -1.44047e-05 -7.13146e-06)
(4.98177 -9.42414e-06 -4.67784e-06)
(4.95142 -3.70086e-06 -1.90296e-06)
(4.99277 -1.3253e-06 -7.85202e-07)
(5.01114 -7.30687e-07 -4.35825e-07)
(5.00372 -3.37134e-07 -1.90597e-07)
(4.99816 -6.74187e-08 -4.36315e-08)
(5.01349 1.0976e-05 -8.18298e-06)
(4.90155 1.22218e-05 -8.16577e-06)
(5.06008 1.48134e-05 -8.59525e-06)
(5.09533 1.58956e-05 -9.20204e-06)
(4.98173 1.04534e-05 -5.51023e-06)
(4.95138 4.15103e-06 -1.94179e-06)
(4.99272 1.48823e-06 -8.19492e-07)
(5.01109 8.1835e-07 -5.42382e-07)
(5.00367 3.81505e-07 -2.54628e-07)
(4.99811 7.57888e-08 -5.15182e-08)
(5.01355 1.65538e-05 -8.18303e-06)
(4.9017 1.73472e-05 -8.16776e-06)
(5.06033 1.95421e-05 -8.59418e-06)
(5.09571 2.05935e-05 -9.20193e-06)
(4.98222 1.28094e-05 -5.50946e-06)
(4.9519 4.64351e-06 -1.93922e-06)
(4.99326 1.68827e-06 -8.17045e-07)
(5.01163 1.08058e-06 -5.4184e-07)
(5.00422 5.14241e-07 -2.54233e-07)
(4.99866 9.31099e-08 -5.12249e-08)
(5.01355 9.31732e-06 -8.18333e-06)
(4.90169 9.59508e-06 -8.15976e-06)
(5.06033 9.89387e-06 -8.59682e-06)
(5.09571 1.0537e-05 -9.213e-06)
(4.98222 6.43081e-06 -5.5132e-06)
(4.9519 2.32957e-06 -1.93773e-06)
(4.99326 9.56935e-07 -8.18448e-07)
(5.01163 6.61495e-07 -5.44923e-07)
(5.00422 3.1145e-07 -2.54862e-07)
(4.99866 5.46061e-08 -5.14857e-08)
(5.01355 5.80639e-06 -8.18395e-06)
(4.90169 7.07478e-06 -8.16677e-06)
(5.06032 7.7382e-06 -8.5969e-06)
(5.09571 8.44344e-06 -9.20765e-06)
(4.98221 5.65749e-06 -5.50432e-06)
(4.9519 2.39026e-06 -1.92805e-06)
(4.99325 9.50434e-07 -8.14142e-07)
(5.01163 5.43292e-07 -5.46355e-07)
(5.00422 2.56774e-07 -2.54547e-07)
(4.99866 5.12334e-08 -5.08443e-08)
(5.01355 2.39151e-06 -8.1819e-06)
(4.90169 3.13531e-06 -8.16251e-06)
(5.06032 3.04774e-06 -8.59592e-06)
(5.09571 3.07199e-06 -9.21166e-06)
(4.98221 1.93528e-06 -5.50989e-06)
(4.9519 7.26392e-07 -1.93398e-06)
(4.99325 2.55362e-07 -8.21504e-07)
(5.01163 1.85843e-07 -5.53224e-07)
(5.00422 1.02322e-07 -2.56577e-07)
(4.99866 1.7526e-08 -5.10792e-08)
(5.01355 -1.09306e-06 -8.18334e-06)
(4.90169 -1.03123e-06 -8.16548e-06)
(5.06032 -1.09967e-06 -8.5956e-06)
(5.09571 -1.11667e-06 -9.21742e-06)
(4.98221 -4.43663e-07 -5.50585e-06)
(4.9519 2.34928e-08 -1.91856e-06)
(4.99325 1.79529e-08 -8.12739e-07)
(5.01163 -1.19297e-08 -5.53384e-07)
(5.00422 -1.33829e-09 -2.53656e-07)
(4.99866 -1.36514e-09 -4.92299e-08)
(5.01355 -4.47645e-06 -8.18065e-06)
(4.90169 -5.01775e-06 -8.17469e-06)
(5.06032 -5.80085e-06 -8.5916e-06)
(5.09571 -6.46702e-06 -9.20586e-06)
(4.98221 -4.15949e-06 -5.50935e-06)
(4.9519 -1.63308e-06 -1.92964e-06)
(4.99325 -6.61955e-07 -8.21838e-07)
(5.01163 -3.67212e-07 -5.58607e-07)
(5.00422 -1.5772e-07 -2.53074e-07)
(4.99866 -3.42899e-08 -4.84591e-08)
(5.01355 -7.88878e-06 -8.18371e-06)
(4.90169 -7.64692e-06 -8.17239e-06)
(5.06033 -8.11779e-06 -8.58761e-06)
(5.09571 -8.73424e-06 -9.20898e-06)
(4.98222 -5.14503e-06 -5.50977e-06)
(4.9519 -1.73922e-06 -1.92471e-06)
(4.99325 -7.33858e-07 -8.18594e-07)
(5.01163 -5.12171e-07 -5.5917e-07)
(5.00422 -2.27466e-07 -2.5241e-07)
(4.99866 -4.01639e-08 -4.7676e-08)
(5.01355 -1.46934e-05 -8.18645e-06)
(4.90169 -1.49927e-05 -8.17241e-06)
(5.06033 -1.7253e-05 -8.58306e-06)
(5.09571 -1.82684e-05 -9.20943e-06)
(4.98222 -1.12114e-05 -5.51207e-06)
(4.9519 -3.95394e-06 -1.92248e-06)
(4.99326 -1.43812e-06 -8.19595e-07)
(5.01163 -9.29018e-07 -5.61952e-07)
(5.00422 -4.31629e-07 -2.5027e-07)
(4.99866 -7.76613e-08 -4.69855e-08)
(5.01349 -9.86339e-06 -8.18412e-06)
(4.90156 -1.08023e-05 -8.17428e-06)
(5.0601 -1.3362e-05 -8.58779e-06)
(5.09536 -1.44164e-05 -9.20799e-06)
(4.98178 -9.4278e-06 -5.50835e-06)
(4.95142 -3.69637e-06 -1.92023e-06)
(4.99277 -1.32148e-06 -8.18893e-07)
(5.01114 -7.29957e-07 -5.62554e-07)
(5.00372 -3.36128e-07 -2.50635e-07)
(4.99816 -6.67969e-08 -4.67126e-08)
(5.01349 1.09774e-05 -1.4859e-05)
(4.90155 1.22141e-05 -1.53065e-05)
(5.06008 1.48136e-05 -1.75578e-05)
(5.09533 1.59034e-05 -1.85711e-05)
(4.98173 1.04601e-05 -1.14525e-05)
(4.95138 4.15319e-06 -4.09049e-06)
(4.99272 1.4892e-06 -1.49547e-06)
(5.01109 8.19143e-07 -9.47606e-07)
(5.00367 3.81372e-07 -4.48433e-07)
(4.99811 7.54691e-08 -8.44267e-08)
(5.01355 1.65558e-05 -1.48592e-05)
(4.9017 1.73477e-05 -1.53132e-05)
(5.06033 1.95416e-05 -1.75555e-05)
(5.09571 2.05897e-05 -1.85636e-05)
(4.98222 1.2806e-05 -1.14468e-05)
(4.9519 4.64067e-06 -4.0869e-06)
(4.99326 1.6853e-06 -1.49332e-06)
(5.01163 1.07788e-06 -9.48475e-07)
(5.00422 5.12489e-07 -4.50152e-07)
(4.99866 9.21649e-08 -8.50048e-08)
(5.01355 9.31775e-06 -1.48563e-05)
(4.9017 9.5964e-06 -1.53083e-05)
(5.06033 9.89218e-06 -1.75587e-05)
(5.09571 1.05296e-05 -1.85759e-05)
(4.98222 6.4283e-06 -1.14593e-05)
(4.9519 2.33296e-06 -4.09483e-06)
(4.99326 9.58762e-07 -1.49797e-06)
(5.01163 6.59707e-07 -9.50589e-07)
(5.00422 3.11229e-07 -4.49887e-07)
(4.99866 5.47062e-08 -8.50024e-08)
(5.01355 5.8087e-06 -1.48586e-05)
(4.90169 7.0722e-06 -1.53143e-05)
(5.06033 7.73792e-06 -1.75537e-05)
(5.09571 8.4464e-06 -1.8565e-05)
(4.98222 5.65957e-06 -1.14455e-05)
(4.9519 2.38955e-06 -4.08335e-06)
(4.99325 9.48193e-07 -1.49239e-06)
(5.01163 5.39927e-07 -9.50151e-07)
(5.00422 2.55846e-07 -4.4948e-07)
(4.99866 5.13957e-08 -8.47565e-08)
(5.01355 2.39037e-06 -1.48548e-05)
(4.90169 3.13442e-06 -1.53079e-05)
(5.06033 3.05223e-06 -1.75588e-05)
(5.09571 3.07267e-06 -1.85794e-05)