/*--------------------------------*- C++ -*----------------------------------*\
| =========                 |                                                 |
| \\      /  F ield         | OpenFOAM: The Open Source CFD Toolbox           |
|  \\    /   O peration     | Version:  1.7.x                                 |
|   \\  /    A nd           | Web:      www.OpenFOAM.com                      |
|    \\/     M anipulation  |                                                 |
\*---------------------------------------------------------------------------*/
FoamFile
{
    version     2.0;
    format      ascii;
    class       surfaceScalarField;
    location    "0.2";
    object      phi;
}
// * * * * * * * * * * * * * * * * * * * * * * * * * * * * * * * * * * * * * //

dimensions      [0 3 -1 0 0 0 0];

internalField   nonuniform List<scalar> 
2700
(
0.0499986
7.43238e-07
6.60575e-07
0.0499975
5.88034e-07
5.34282e-07
0.0499968
3.42133e-07
3.11552e-07
0.0499966
1.02758e-07
9.15841e-08
0.0499966
3.00931e-09
1.60485e-09
0.0499966
-2.25325e-09
-2.33041e-09
0.0499966
1.95742e-09
1.7532e-09
0.0499966
1.23877e-09
1.14017e-09
0.0499966
-1.83689e-10
-1.97943e-10
-2.21717e-10
-2.18074e-10
0.0499995
5.49164e-07
6.60805e-07
0.0499991
4.53652e-07
5.33936e-07
0.0499989
2.63219e-07
3.11176e-07
0.0499988
8.54325e-08
9.17883e-08
0.0499988
6.35729e-09
1.88005e-09
0.0499988
-1.11116e-09
-2.14927e-09
0.0499988
2.01543e-09
1.94362e-09
0.0499988
1.56696e-09
1.18118e-09
0.0499988
-4.33542e-10
-2.65869e-10
-5.04294e-10
-2.16843e-10
0.0499995
3.70129e-07
6.60495e-07
0.0499991
3.14897e-07
5.33936e-07
0.0499989
1.82892e-07
3.11233e-07
0.0499988
6.32647e-08
9.15597e-08
0.0499988
7.03849e-09
1.75361e-09
0.0499988
-6.76616e-10
-2.22398e-09
0.0499988
1.92405e-09
1.898e-09
0.0499988
1.78818e-09
1.14705e-09
0.0499988
-6.79677e-10
-2.96237e-10
-7.83321e-10
-2.10436e-10
0.0499995
2.00694e-07
6.60734e-07
0.0499991
1.73409e-07
5.34462e-07
0.0499989
1.01319e-07
3.11756e-07
0.0499988
3.73338e-08
9.17742e-08
0.0499988
5.2293e-09
1.74738e-09
0.0499988
-8.2205e-10
-2.23625e-09
0.0499988
1.62134e-09
1.91995e-09
0.0499988
1.80769e-09
1.19255e-09
0.0499988
-8.98513e-10
-3.0124e-10
-9.75515e-10
-2.66277e-10
0.0499995
3.64552e-08
6.60733e-07
0.0499991
3.21202e-08
5.33404e-07
0.0499989
1.92236e-08
3.11315e-07
0.0499988
9.58341e-09
9.15023e-08
0.0499988
2.41165e-09
1.61059e-09
0.0499988
-1.08708e-09
-2.24238e-09
0.0499988
1.18395e-09
1.90328e-09
0.0499988
1.69647e-09
1.17893e-09
0.0499988
-9.68832e-10
-2.70155e-10
-1.05305e-09
-2.50403e-10
0.0499995
-1.26298e-07
6.60246e-07
0.0499991
-1.10314e-07
5.34709e-07
0.0499989
-6.40525e-08
3.11885e-07
0.0499988
-1.87761e-08
9.16164e-08
0.0499988
-5.30819e-10
1.64796e-09
0.0499988
-1.22629e-09
-2.22584e-09
0.0499988
6.2466e-10
1.88479e-09
0.0499988
1.38908e-09
1.15709e-09
0.0499988
-9.14469e-10
-2.59009e-10
-9.94542e-10
-2.2639e-10
0.0499995
-2.92979e-07
6.60663e-07
0.0499991
-2.51412e-07
5.33901e-07
0.0499989
-1.46281e-07
3.11321e-07
0.0499988
-4.56994e-08
9.14528e-08
0.0499988
-2.59575e-09
1.70521e-09
0.0499988
-8.92266e-10
-2.2203e-09
0.0499988
-4.2829e-11
1.82474e-09
0.0499988
9.24722e-10
1.10709e-09
0.0499988
-7.48788e-10
-2.48933e-10
-8.33885e-10
-1.99751e-10
0.0499995
-4.66917e-07
6.60629e-07
0.0499991
-3.9171e-07
5.34258e-07
0.0499989
-2.28202e-07
3.11385e-07
0.0499988
-6.98283e-08
9.15839e-08
0.0499988
-2.70148e-09
1.91369e-09
0.0499988
7.54232e-11
-2.11306e-09
0.0499988
-7.57783e-10
1.75247e-09
0.0499988
3.65382e-10
1.09551e-09
0.0499988
-5.03758e-10
-1.70731e-10
-6.19513e-10
-1.6487e-10
0.0499995
-6.53924e-07
6.6064e-07
0.0499991
-5.27565e-07
5.3412e-07
0.0499989
-3.0779e-07
3.11228e-07
0.0499988
-8.94467e-08
9.13975e-08
0.0499988
-9.94821e-10
1.89225e-09
0.0499988
1.59062e-09
-2.09182e-09
0.0499988
-1.44446e-09
1.67571e-09
0.0499988
-2.61604e-10
1.02492e-09
0.0499988
-1.89415e-10
-1.62172e-10
-3.47237e-10
-1.23731e-10
0.0499987
6.60765e-07
0.0499976
5.34025e-07
0.049997
3.11235e-07
0.0499968
9.13638e-08
0.0499968
1.93249e-09
0.0499968
-2.04916e-09
0.0499968
1.59223e-09
0.0499968
9.87679e-10
0.0499968
-1.00892e-10
-9.53116e-11
0.0499994
7.4347e-07
4.80542e-07
0.049999
5.87695e-07
4.04552e-07
0.0499987
3.41763e-07
2.35194e-07
0.0499986
1.02957e-07
7.41207e-08
0.0499986
3.30092e-09
4.17488e-09
0.0499986
-2.07198e-09
-1.44993e-09
0.0499986
2.14731e-09
1.76836e-09
0.0499986
1.27979e-09
1.45375e-09
0.0499986
-2.5203e-10
-4.56416e-10
-2.20496e-10
-5.04215e-10
0.0500004
5.49319e-07
4.8069e-07
0.0500006
4.53525e-07
4.04442e-07
0.0500008
2.63261e-07
2.35252e-07
0.0500008
8.56869e-08
7.43905e-08
0.0500008
6.45967e-09
4.30367e-09
0.0500008
-1.02918e-09
-1.36346e-09
0.0500008
2.13125e-09
1.88545e-09
0.0500008
1.61796e-09
1.50501e-09
0.0500008
-5.01569e-10
-5.23726e-10
-5.46282e-10
-5.45769e-10
0.0500004
3.69952e-07
4.80447e-07
0.0500006
3.14688e-07
4.04684e-07
0.0500008
1.83101e-07
2.35487e-07
0.0500008
6.3429e-08
7.41091e-08
0.0500008
7.02298e-09
3.94368e-09
0.0500008
-7.0424e-10
-1.52315e-09
0.0500008
1.9316e-09
1.77796e-09
0.0500008
1.84193e-09
1.43319e-09
0.0500008
-7.12844e-10
-5.16318e-10
-8.28693e-10
-5.16494e-10
0.0500003
2.00477e-07
4.80701e-07
0.0500006
1.73912e-07
4.05411e-07
0.0500008
1.01696e-07
2.36047e-07
0.0500008
3.73523e-08
7.42895e-08
0.0500008
5.14502e-09
3.95554e-09
0.0500008
-8.66177e-10
-1.46447e-09
0.0500008
1.64095e-09
1.77621e-09
0.0500008
1.87417e-09
1.45683e-09
0.0500008
-8.91245e-10
-4.92906e-10
-1.00202e-09
-5.36487e-10
0.0500003
3.64444e-08
4.80644e-07
0.0500006
3.22011e-08
4.04182e-07
0.0500008
1.90621e-08
2.35592e-07
0.0500008
9.49531e-09
7.38722e-08
0.0500008
2.37388e-09
3.76961e-09
0.0500008
-1.12135e-09
-1.4313e-09
0.0500008
1.21418e-09
1.68678e-09
0.0500008
1.71759e-09
1.38591e-09
0.0500008
-9.80792e-10
-4.19722e-10
-1.04213e-09
-4.77233e-10
0.0500003
-1.26657e-07
4.80541e-07
0.0500006
-1.09755e-07
4.05365e-07
0.0500008
-6.41677e-08
2.36074e-07
0.0500008
-1.87366e-08
7.41138e-08
0.0500008
-4.40431e-10
3.95873e-09
0.0500008
-1.26302e-09
-1.34717e-09
0.0500008
6.04948e-10
1.5281e-09
0.0500008
1.39534e-09
1.29914e-09
0.0500008
-8.93426e-10
-3.36242e-10
-9.63694e-10
-4.07394e-10
0.0500003
-2.93053e-07
4.8069e-07
0.0500006
-2.51184e-07
4.0429e-07
0.0500008
-1.46354e-07
2.35144e-07
0.0500008
-4.55569e-08
7.37716e-08
0.0500008
-2.37584e-09
4.13482e-09
0.0500008
-8.67908e-10
-1.22044e-09
0.0500008
-8.8983e-11
1.35307e-09
0.0500008
8.92728e-10
1.22246e-09
0.0500008
-7.0504e-10
-2.33958e-10
-7.92564e-10
-3.63694e-10
0.0500004
-4.67124e-07
4.80495e-07
0.0500006
-3.9122e-07
4.04987e-07
0.0500008
-2.27752e-07
2.35523e-07
0.0500008
-6.95944e-08
7.38733e-08
0.0500008
-2.61319e-09
4.38116e-09
0.0500008
1.33206e-10
-1.09899e-09
0.0500008
-8.09332e-10
1.19248e-09
0.0500008
3.02223e-10
1.15155e-09
0.0500008
-4.35426e-10
-1.4795e-10
-5.56601e-10
-3.1416e-10
0.0500004
-6.54004e-07
4.80537e-07
0.0500006
-5.27152e-07
4.04606e-07
0.0500008
-3.07325e-07
2.35366e-07
0.0500008
-8.91609e-08
7.39004e-08
0.0500008
-9.06725e-10
4.51315e-09
0.0500008
1.59728e-09
-1.05687e-09
0.0500008
-1.54576e-09
1.01786e-09
0.0500008
-3.25668e-10
1.06482e-09
0.0500008
-1.52068e-10
-9.32258e-11
-3.09069e-10
-2.70078e-10
0.0499995
4.80478e-07
0.0499991
4.04859e-07
0.0499989
2.35803e-07
0.0499988
7.39889e-08
0.0499988
4.55903e-09
0.0499988
-9.74808e-10
0.0499988
1.00304e-09
0.0499988
1.0462e-09
0.0499988
-5.13033e-11
-2.50892e-10
0.0499994
7.43157e-07
3.13662e-07
0.049999
5.87694e-07
2.71126e-07
0.0499987
3.41817e-07
1.57691e-07
0.0499986
1.02724e-07
5.23611e-08
0.0499986
3.15287e-09
4.41677e-09
0.0499986
-2.14654e-09
-1.21446e-09
0.0499986
2.10196e-09
1.65111e-09
0.0499986
1.24588e-09
1.6666e-09
0.0499986
-2.82621e-10
-7.07668e-10
-2.13813e-10
-7.85658e-10
0.0500004
5.49061e-07
3.13483e-07
0.0500006
4.5378e-07
2.70941e-07
0.0500008
2.63503e-07
1.57925e-07
0.0500008
8.54127e-08
5.2536e-08
0.0500008
6.12626e-09
4.40153e-09
0.0500008
-1.18117e-09
-1.24114e-09
0.0500008
2.02502e-09
1.66009e-09
0.0500008
1.54701e-09
1.7205e-09
0.0500008
-4.94053e-10
-7.40948e-10
-5.17155e-10
-8.31011e-10
0.0500003
3.6979e-07
3.13315e-07
0.0500006
3.14818e-07
2.71056e-07
0.0500008
1.8325e-07
1.58096e-07
0.0500008
6.30916e-08
5.21971e-08
0.0500008
6.71803e-09
4.09191e-09
0.0500008
-7.35533e-10
-1.27277e-09
0.0500008
1.84518e-09
1.57085e-09
0.0500008
1.74129e-09
1.61906e-09
0.0500008
-6.81547e-10
-7.09882e-10
-7.85081e-10
-7.87267e-10
0.0500003
2.00459e-07
3.13437e-07
0.0500006
1.74574e-07
2.71503e-07
0.0500008
1.0193e-07
1.58122e-07
0.0500008
3.72492e-08
5.21357e-08
0.0500008
5.09134e-09
4.12315e-09
0.0500008
-7.78154e-10
-1.18238e-09
0.0500008
1.55314e-09
1.50138e-09
0.0500008
1.7389e-09
1.59931e-09
0.0500008
-8.35008e-10
-6.48634e-10
-9.54445e-10
-7.44485e-10
0.0500003
3.68288e-08
3.13354e-07
0.0500006
3.20513e-08
2.71481e-07
0.0500008
1.8568e-08
1.58078e-07
0.0500008
9.24717e-09
5.19898e-08
0.0500008
2.44221e-09
4.19446e-09
0.0500008
-1.0197e-09
-1.06968e-09
0.0500008
1.0457e-09
1.32939e-09
0.0500008
1.59018e-09
1.47533e-09
0.0500008
-8.51899e-10
-5.31713e-10
-9.76975e-10
-6.70703e-10
0.0500003
-1.26266e-07
3.13455e-07
0.0500006
-1.09551e-07
2.71241e-07
0.0500008
-6.40696e-08
1.57845e-07
0.0500008
-1.88352e-08
5.19829e-08
0.0500008
-2.88538e-10
4.48688e-09
0.0500008
-1.03926e-09
-8.58872e-10
0.0500008
4.4977e-10
1.06242e-09
0.0500008
1.27406e-09
1.34982e-09
0.0500008
-8.04273e-10
-3.80133e-10
-9.08975e-10
-5.9448e-10
0.0500003
-2.92553e-07
3.13583e-07
0.0500006
-2.51848e-07
2.71102e-07
0.0500008
-1.47025e-07
1.57855e-07
0.0500008
-4.58992e-08
5.1969e-08
0.0500008
-2.28471e-09
4.74343e-09
0.0500008
-7.40589e-10
-6.71221e-10
0.0500008
-2.54425e-10
8.37016e-10
0.0500008
8.06493e-10
1.22713e-09
0.0500008
-6.45043e-10
-2.59858e-10
-7.58918e-10
-5.09595e-10
0.0500003
-4.66711e-07
3.1343e-07
0.0500006
-3.92157e-07
2.71418e-07
0.0500008
-2.28653e-07
1.58229e-07
0.0500008
-6.99999e-08
5.19687e-08
0.0500008
-2.59055e-09
4.93888e-09
0.0500008
1.71015e-10
-5.96319e-10
0.0500008
-9.60918e-10
5.92546e-10
0.0500008
2.38694e-10
1.14327e-09
0.0500008
-3.99316e-10
-1.54368e-10
-5.35889e-10
-4.63638e-10
0.0500004
-6.53693e-07
3.13603e-07
0.0500006
-5.28176e-07
2.71124e-07
0.0500008
-3.08235e-07
1.57811e-07
0.0500008
-8.96189e-08
5.15433e-08
0.0500008
-9.34816e-10
4.94586e-09
0.0500008
1.67711e-09
-4.73373e-10
0.0500008
-1.58612e-09
3.95837e-10
0.0500008
-3.46289e-10
1.04794e-09
0.0500008
-1.14867e-10
-5.94263e-11
-2.99108e-10
-3.81103e-10
0.0499995
3.13775e-07
0.0499991
2.70955e-07
0.0499989
1.57535e-07
0.0499988
5.14151e-08
0.0499988
5.00402e-09
0.0499988
-4.34073e-10
0.0499988
3.45105e-10
0.0499988
1.03418e-09
0.0499988
-1.58089e-11
-3.9536e-10
0.0499994
7.43412e-07
1.5483e-07
0.049999
5.88237e-07
1.3537e-07
0.0499987
3.42354e-07
7.91784e-08
0.0499986
1.02935e-07
2.72853e-08
0.0499986
3.15598e-09
2.46777e-09
0.0499986
-2.15888e-09
-1.47319e-09
0.0499986
2.1244e-09
1.34064e-09
0.0499986
1.2912e-09
1.68576e-09
0.0499986
-2.87396e-10
-9.29803e-10
-2.69963e-10
-9.79302e-10
0.0500004
5.49337e-07
1.54623e-07
0.0500006
4.545e-07
1.35945e-07
0.0500008
2.64082e-07
7.96006e-08
0.0500008
8.56153e-08
2.72817e-08
0.0500008
6.13626e-09
2.37677e-09
0.0500008
-1.12735e-09
-1.51291e-09
0.0500008
2.02237e-09
1.36226e-09
0.0500008
1.57002e-09
1.75261e-09
0.0500008
-4.70668e-10
-9.22832e-10
-5.36871e-10
-1.00581e-09
0.0500003
3.69845e-07
1.54675e-07
0.0500006
3.15229e-07
1.36593e-07
0.0500008
1.83293e-07
7.98906e-08
0.0500008
6.3053e-08
2.72063e-08
0.0500008
6.75023e-09
2.32718e-09
0.0500008
-6.47164e-10
-1.42729e-09
0.0500008
1.77415e-09
1.271e-09
0.0500008
1.72053e-09
1.61636e-09
0.0500008
-6.20521e-10
-8.66391e-10
-7.4237e-10
-9.58316e-10
0.0500003
2.00451e-07
1.54571e-07
0.0500006
1.74586e-07
1.36537e-07
0.0500008
1.01564e-07
7.96051e-08
0.0500008
3.69613e-08
2.69626e-08
0.0500008
5.14999e-09
2.39437e-09
0.0500008
-6.5066e-10
-1.29398e-09
0.0500008
1.36622e-09
1.08414e-09
0.0500008
1.67652e-09
1.55455e-09
0.0500008
-7.14218e-10
-7.45313e-10
-8.61686e-10
-8.65561e-10
0.0500003
3.67039e-08
1.54522e-07
0.0500006
3.25269e-08
1.36137e-07
0.0500008
1.86851e-08
7.92075e-08
0.0500008
9.2703e-09
2.70555e-08
0.0500008
2.66917e-09
2.7657e-09
0.0500008
-9.06549e-10
-1.1428e-09
0.0500008
7.93278e-10
8.05783e-10
0.0500008
1.4933e-09
1.43748e-09
0.0500008
-7.33386e-10
-5.96962e-10
-8.95011e-10
-8.00099e-10
0.0500003
-1.26392e-07
1.54727e-07
0.0500006
-1.09658e-07
1.35678e-07
0.0500008
-6.43078e-08
7.91187e-08
0.0500008
-1.88094e-08
2.69119e-08
0.0500008
4.10192e-11
3.07679e-09
0.0500008
-9.10711e-10
-8.84127e-10
0.0500008
1.7707e-10
5.10587e-10
0.0500008
1.16028e-09
1.31682e-09
0.0500008
-6.7152e-10
-4.2733e-10
-8.51267e-10
-7.13365e-10
0.0500003
-2.93008e-07
1.5491e-07
0.0500006
-2.51602e-07
1.36491e-07
0.0500008
-1.46508e-07
7.9098e-08
0.0500008
-4.56475e-08
2.65967e-08
0.0500008
-1.97889e-09
3.16097e-09
0.0500008
-6.44824e-10
-7.19184e-10
0.0500008
-4.98235e-10
2.43502e-10
0.0500008
6.99853e-10
1.13489e-09
0.0500008
-4.97592e-10
-3.04955e-10
-6.94403e-10
-6.06237e-10
0.0500003
-4.67378e-07
1.54862e-07
0.0500006
-3.90652e-07
1.35461e-07
0.0500008
-2.2702e-07
7.86504e-08
0.0500008
-6.94598e-08
2.62801e-08
0.0500008
-2.19758e-09
3.37594e-09
0.0500008
2.83521e-10
-5.81709e-10
0.0500008
-1.11635e-09
-5.29791e-11
0.0500008
1.49899e-10
1.04453e-09
0.0500008
-3.06461e-10
-1.44486e-10
-4.8866e-10
-5.59371e-10
0.0500003
-6.53976e-07
1.54407e-07
0.0500006
-5.26669e-07
1.36139e-07
0.0500008
-3.06719e-07
7.93229e-08
0.0500008
-8.91928e-08
2.62977e-08
0.0500008
-7.20254e-10
3.54112e-09
0.0500008
1.70611e-09
-4.12224e-10
0.0500008
-1.66287e-09
-2.42676e-10
0.0500008
-4.07773e-10
9.5939e-10
0.0500008
-9.11334e-11
-3.01256e-11
-2.68234e-10
-4.65085e-10
0.0499995
1.54629e-07
0.0499991
1.36614e-07
0.0499989
7.9956e-08
0.0499988
2.65464e-08
0.0499988
3.71788e-09
0.0499988
-3.22872e-10
0.0499988
-2.57766e-10
0.0499988
9.37229e-10
0.0499988
6.799e-15
-4.83223e-10
0.0499994
7.43238e-07
1.26191e-10
0.049999
5.87225e-07
6.50103e-11
0.0499987
3.42e-07
2.89701e-10
0.0499986
1.02673e-07
7.31598e-10
0.0499986
3.04628e-09
-2.7539e-10
0.0499986
-2.16381e-09
-1.76862e-09
0.0499986
2.10712e-09
9.15055e-10
0.0499986
1.27714e-09
1.58134e-09
0.0499986
-2.56344e-10
-1.00042e-09
-2.54072e-10
-1.058e-09
0.0500003
5.49118e-07
-4.86422e-11
0.0500006
4.5331e-07
3.24657e-10
0.0500008
2.63677e-07
3.19697e-10
0.0500008
8.51834e-08
6.22327e-10
0.0500008
5.97236e-09
-2.95755e-10
0.0500008
-1.0891e-09
-1.79847e-09
0.0500008
1.9336e-09
9.45508e-10
0.0500008
1.49931e-09
1.60293e-09
0.0500008
-3.97231e-10
-1.01239e-09
-4.77856e-10
-1.04704e-09
0.0500003
3.69917e-07
1.62613e-10
0.0500006
3.15159e-07
2.42535e-10
0.0500008
1.83175e-07
9.4511e-12
0.0500008
6.28477e-08
4.54859e-10
0.0500008
6.85176e-09
-2.26235e-10
0.0500008
-5.3412e-10
-1.69373e-09
0.0500008
1.60204e-09
7.75827e-10
0.0500008
1.59701e-09
1.47476e-09
0.0500008
-5.03596e-10
-8.83472e-10
-6.68525e-10
-9.81788e-10
0.0500003
2.00416e-07
2.47225e-10
0.0500006
1.74219e-07
3.73996e-10
0.0500008
1.01232e-07
3.39676e-11
0.0500008
3.70582e-08
4.79672e-10
0.0500008
5.56181e-09
1.82852e-11
0.0500008
-4.95572e-10
-1.57903e-09
0.0500008
1.08669e-09
5.21534e-10
0.0500008
1.55954e-09
1.37814e-09
0.0500008
-5.65668e-10
-7.64786e-10
-7.96194e-10
-8.99735e-10
0.0500003
3.6452e-08
-3.77312e-11
0.0500006
3.20417e-08
-3.56398e-10
0.0500008
1.87566e-08
-2.94642e-10
0.0500008
9.36713e-09
4.94487e-10
0.0500008
3.11865e-09
3.9196e-10
0.0500008
-6.03446e-10
-1.27794e-09
0.0500008
5.2416e-10
2.56796e-10
0.0500008
1.36666e-09
1.25135e-09
0.0500008
-5.68268e-10
-6.00004e-10
-8.28852e-10
-8.33613e-10
0.0500003
-1.26432e-07
1.08306e-10
0.0500006
-1.10253e-07
-8.64582e-11
0.0500008
-6.40304e-08
-9.71087e-11
0.0500008
-1.9017e-08
6.69899e-11
0.0500008
2.90287e-10
5.0096e-10
0.0500008
-6.62073e-10
-1.06326e-09
0.0500008
-8.80157e-11
-5.90134e-11
0.0500008
1.01999e-09
1.08764e-09
0.0500008
-4.89216e-10
-4.27686e-10
-7.54443e-10
-7.02316e-10
0.0500003
-2.92527e-07
-1.15164e-10
0.0500006
-2.51392e-07
5.70269e-10
0.0500008
-1.4677e-07
1.99095e-10
0.0500008
-4.62561e-08
-2.19573e-12
0.0500008
-1.96894e-09
8.68837e-10
0.0500008
-5.5889e-10
-8.90711e-10
0.0500008
-7.50734e-10
-4.00453e-10
0.0500008
5.37972e-10
9.48981e-10
0.0500008
-4.14267e-10
-2.57401e-10
-6.00843e-10
-6.53836e-10
0.0500003
-4.6679e-07
1.61236e-10
0.0500006
-3.92092e-07
3.53961e-11
0.0500008
-2.28574e-07
-1.4455e-10
0.0500008
-7.0397e-08
-3.42616e-10
0.0500008
-2.42341e-09
1.05283e-09
0.0500008
3.21249e-10
-7.31532e-10
0.0500008
-1.30403e-09
-6.34115e-10
0.0500008
5.74948e-11
8.45639e-10
0.0500008
-2.13945e-10
-1.21871e-10
-4.45558e-10
-5.62251e-10
0.0500003
-6.53919e-07
-9.3041e-13
0.0500006
-5.28418e-07
2.56407e-10
0.0500008
-3.08448e-07
-8.59975e-11
0.0500008
-8.98217e-08
-5.03898e-10
0.0500008
-7.03937e-10
1.20335e-09
0.0500008
1.78424e-09
-5.06371e-10
0.0500008
-1.76231e-09
-8.24344e-10
0.0500008
-4.2095e-10
7.89642e-10
0.0500008
-4.5828e-11
-2.49134e-11
-2.77128e-10
-5.2839e-10
0.0499995
8.24058e-11
0.0499991
2.2261e-10
0.0499989
-2.04094e-10
0.0499988
-7.41828e-10
0.0499988
1.15886e-09
0.0499988
-4.43869e-10
0.0499988
-8.47912e-10
0.0499988
7.23356e-10
0.0499988
3.88888e-11
-4.90685e-10
0.0499994
7.43004e-07
-1.54325e-07
0.049999
5.8848e-07
-1.36145e-07
0.0499987
3.42374e-07
-7.9377e-08
0.0499986
1.02767e-07
-2.61353e-08
0.0499986
3.07572e-09
-2.92758e-09
0.0499986
-2.14909e-09
-1.86536e-09
0.0499986
2.0883e-09
3.86001e-10
0.0499986
1.25574e-09
1.28777e-09
0.0499986
-2.45081e-10
-9.43582e-10
-2.2991e-10
-9.99293e-10
0.0500003
5.4926e-07
-1.54756e-07
0.0500006
4.54553e-07
-1.35465e-07
0.0500008
2.64046e-07
-7.94439e-08
0.0500008
8.54111e-08
-2.61407e-08
0.0500008
6.15598e-09
-2.80303e-09
0.0500008
-1.00549e-09
-1.90003e-09
0.0500008
1.77378e-09
3.65833e-10
0.0500008
1.41303e-09
1.29422e-09
0.0500008
-3.13722e-10
-9.22388e-10
-4.0764e-10
-9.68697e-10
0.0500003
3.69982e-07
-1.54488e-07
0.0500006
3.15189e-07
-1.35211e-07
0.0500008
1.83116e-07
-7.9252e-08
0.0500008
6.29009e-08
-2.61769e-08
0.0500008
7.11876e-09
-2.62872e-09
0.0500008
-3.27068e-10
-1.66382e-09
0.0500008
1.33221e-09
2.11635e-10
0.0500008
1.47092e-09
1.17285e-09
0.0500008
-3.52023e-10
-8.3361e-10
-5.92268e-10
-9.14012e-10
0.0500003
2.00743e-07
-1.54551e-07
0.0500006
1.73734e-07
-1.35417e-07
0.0500008
1.01386e-07
-7.95332e-08
0.0500008
3.70031e-08
-2.6147e-08
0.0500008
5.87765e-09
-2.3285e-09
0.0500008
-2.35351e-10
-1.54685e-09
0.0500008
8.00695e-10
-7.85255e-11
0.0500008
1.43883e-09
1.05873e-09
0.0500008
-3.95647e-10
-7.00968e-10
-7.09631e-10
-8.56228e-10
0.0500003
3.67543e-08
-1.54519e-07
0.0500006
3.16687e-08
-1.36159e-07
0.0500008
1.85192e-08
-7.92342e-08
0.0500008
8.79023e-09
-2.62487e-08
0.0500008
3.17701e-09
-2.1073e-09
0.0500008
-3.96455e-10
-1.28144e-09
0.0500008
2.1952e-10
-3.24939e-10
0.0500008
1.20357e-09
9.17553e-10
0.0500008
-3.96294e-10
-5.18138e-10
-6.97479e-10
-7.59268e-10
0.0500003
-1.26307e-07
-1.54434e-07
0.0500006
-1.10306e-07
-1.36116e-07
0.0500008
-6.42226e-08
-7.95475e-08
0.0500008
-1.93741e-08
-2.6764e-08
0.0500008
4.19934e-10
-1.99355e-09
0.0500008
-5.69707e-10
-1.19221e-09
0.0500008
-4.24351e-10
-6.59217e-10
0.0500008
8.62509e-10
7.58797e-10
0.0500008
-3.62018e-10
-3.90193e-10
-6.43604e-10
-6.48565e-10
0.0500003
-2.92867e-07
-1.54463e-07
0.0500006
-2.51289e-07
-1.35673e-07
0.0500008
-1.46736e-07
-7.94314e-08
0.0500008
-4.6254e-08
-2.69563e-08
0.0500008
-1.49615e-09
-1.59738e-09
0.0500008
-3.18527e-10
-9.9839e-10
0.0500008
-1.02022e-09
-9.86916e-10
0.0500008
4.50848e-10
6.79109e-10
0.0500008
-2.42256e-10
-2.28604e-10
-5.53165e-10
-6.32372e-10
0.0500003
-4.672e-07
-1.54256e-07
0.0500006
-3.91343e-07
-1.36062e-07
0.0500008
-2.2781e-07
-7.99568e-08
0.0500008
-7.00413e-08
-2.73671e-08
0.0500008
-1.82106e-09
-1.51355e-09
0.0500008
5.54713e-10
-7.25015e-10
0.0500008
-1.45692e-09
-1.12626e-09
0.0500008
4.33536e-12
5.60794e-10
0.0500008
-7.67914e-11
-9.00846e-11
-4.10862e-10
-5.21188e-10
0.0500003
-6.5431e-07
-1.54684e-07
0.0500006
-5.27681e-07
-1.35384e-07
0.0500008
-3.07375e-07
-7.92824e-08
0.0500008
-8.95142e-08
-2.73088e-08
0.0500008
-5.61536e-10
-1.38506e-09
0.0500008
1.89367e-09
-4.60031e-10
0.0500008
-1.79352e-09
-1.21958e-09
0.0500008
-4.81614e-10
5.19922e-10
0.0500008
1.43062e-11
-8.43154e-12
-2.21078e-10
-5.20166e-10
0.0499995
-1.54862e-07
0.0499991
-1.35937e-07
0.0499989
-7.92252e-08
0.0499988
-2.72693e-08
0.0499988
-1.41785e-09
0.0499988
-4.31407e-10
0.0499988
-1.26864e-09
0.0499988
4.14561e-10
0.0499988
3.80548e-11
-4.53112e-10
0.0499994
7.4337e-07
-3.13394e-07
0.049999
5.87635e-07
-2.70849e-07
0.0499987
3.41875e-07
-1.579e-07
0.0499986
1.02632e-07
-5.13905e-08
0.0499986
3.14965e-09
-4.56923e-09
0.0499986
-2.13311e-09
-1.43038e-09
0.0499986
2.02954e-09
-2.35774e-10
0.0499986
1.20588e-09
8.43162e-10
0.0499986
-2.35215e-10
-7.72588e-10
-2.03591e-10
-8.38451e-10
0.0500004
5.49377e-07
-3.13516e-07
0.0500006
4.53419e-07
-2.70573e-07
0.0500008
2.63123e-07
-1.57943e-07
0.0500008
8.50574e-08
-5.125e-08
0.0500008
6.3486e-09
-4.28146e-09
0.0500008
-8.62803e-10
-1.40409e-09
0.0500008
1.60198e-09
-2.83653e-10
0.0500008
1.33616e-09
8.10531e-10
0.0500008
-2.11733e-10
-7.29436e-10
-3.64149e-10
-7.96941e-10
0.0500003
3.70013e-07
-3.13011e-07
0.0500006
3.14982e-07
-2.71221e-07
0.0500008
1.83058e-07
-1.58585e-07
0.0500008
6.28591e-08
-5.15686e-08
0.0500008
7.46086e-09
-4.21667e-09
0.0500008
-1.16365e-10
-1.2531e-09
0.0500008
1.11303e-09
-4.47874e-10
0.0500008
1.34825e-09
7.24972e-10
0.0500008
-2.31389e-10
-6.6859e-10
-5.07387e-10
-7.63044e-10
0.0500003
2.00689e-07
-3.13467e-07
0.0500006
1.74709e-07
-2.7107e-07
0.0500008
1.01276e-07
-1.58122e-07
0.0500008
3.66778e-08
-5.13543e-08
0.0500008
6.02245e-09
-3.88028e-09
0.0500008
-6.47351e-11
-1.16578e-09
0.0500008
5.17686e-10
-6.97042e-10
0.0500008
1.25683e-09
6.17323e-10
0.0500008
-2.73298e-10
-5.21945e-10
-6.02301e-10
-6.9866e-10
0.0500003
3.63975e-08
-3.13055e-07
0.0500006
3.25246e-08
-2.70715e-07
0.0500008
1.90305e-08
-1.58268e-07
0.0500008
8.98681e-09
-5.19232e-08
0.0500008
3.6484e-09
-3.91804e-09
0.0500008
-2.09515e-10
-1.07292e-09
0.0500008
-1.3539e-10
-9.44551e-10
0.0500008
1.06468e-09
4.53503e-10
0.0500008
-2.26132e-10
-4.37687e-10
-6.49035e-10
-6.0501e-10
0.0500003
-1.26401e-07
-3.13285e-07
0.0500006
-1.09808e-07
-2.70874e-07
0.0500008
-6.40827e-08
-1.58422e-07
0.0500008
-1.94575e-08
-5.19583e-08
0.0500008
8.77632e-10
-3.43803e-09
0.0500008
-3.58447e-10
-8.39078e-10
0.0500008
-7.45902e-10
-1.21507e-09
0.0500008
7.82189e-10
3.6611e-10
0.0500008
-1.98765e-10
-2.6597e-10
-6.27202e-10
-5.57273e-10
0.0500003
-2.9292e-07
-3.13406e-07
0.0500006
-2.51274e-07
-2.70719e-07
0.0500008
-1.46387e-07
-1.57985e-07
0.0500008
-4.65506e-08
-5.22529e-08
0.0500008
-1.41075e-09
-3.39329e-09
0.0500008
-1.27722e-10
-6.28438e-10
0.0500008
-1.1831e-09
-1.378e-09
0.0500008
3.88816e-10
3.09227e-10
0.0500008
-9.38389e-11
-1.19227e-10
-5.04411e-10
-5.08902e-10
0.0500003
-4.66911e-07
-3.13285e-07
0.0500006
-3.91691e-07
-2.70884e-07
0.0500008
-2.2811e-07
-1.58359e-07
0.0500008
-7.05871e-08
-5.24551e-08
0.0500008
-2.01478e-09
-3.21677e-09
0.0500008
6.77852e-10
-3.97027e-10
0.0500008
-1.55618e-09
-1.49629e-09
0.0500008
-9.24996e-11
1.76028e-10
0.0500008
-1.55421e-11
-7.89627e-12
-3.65529e-10
-4.01375e-10
0.0500003
-6.53728e-07
-3.13632e-07
0.0500006
-5.27319e-07
-2.70487e-07
0.0500008
-3.07724e-07
-1.58275e-07
0.0500008
-8.98009e-08
-5.27532e-08
0.0500008
-6.04409e-10
-3.25194e-09
0.0500008
1.9889e-09
-2.17787e-10
0.0500008
-1.85872e-09
-1.61026e-09
0.0500008
-5.70559e-10
1.30398e-10
0.0500008
5.82895e-11
1.43521e-11
-1.91699e-10
-4.39362e-10
0.0499995
-3.13482e-07
0.0499991
-2.70459e-07
0.0499989
-1.58134e-07
0.0499988
-5.26198e-08
0.0499988
-3.27983e-09
0.0499988
-1.50307e-10
0.0499988
-1.62683e-09
0.0499988
3.2961e-11
0.0499988
7.10765e-11
-3.58443e-10
0.0499994
7.43315e-07
-4.80239e-07
0.049999
5.88015e-07
-4.0468e-07
0.0499987
3.41958e-07
-2.36018e-07
0.0499986
1.02753e-07
-7.36958e-08
0.0499986
3.30773e-09
-4.0816e-09
0.0499986
-2.02727e-09
-3.22367e-10
0.0499986
1.95618e-09
-8.90216e-10
0.0499986
1.19435e-09
3.07905e-10
0.0499986
-1.56767e-10
-5.20718e-10
-1.68235e-10
-6.2253e-10
0.0500004
5.4915e-07
-4.8048e-07
0.0500006
4.5415e-07
-4.04202e-07
0.0500008
2.63545e-07
-2.35556e-07
0.0500008
8.51814e-08
-7.34662e-08
0.0500008
6.56213e-09
-3.95731e-09
0.0500008
-7.44543e-10
-2.61515e-10
0.0500008
1.43773e-09
-9.44138e-10
0.0500008
1.2649e-09
2.44682e-10
0.0500008
-1.25267e-10
-4.52327e-10
-3.14381e-10
-5.59905e-10
0.0500003
3.69888e-07
-4.80011e-07
0.0500006
3.15272e-07
-4.05084e-07
0.0500008
1.83476e-07
-2.36471e-07
0.0500008
6.29145e-08
-7.38869e-08
0.0500008
7.59141e-09
-3.96465e-09
0.0500008
-2.72422e-11
-2.07442e-10
0.0500008
8.63252e-10
-1.09504e-09
0.0500008
1.26412e-09
1.82632e-10
0.0500008
-1.26116e-10
-4.16133e-10
-4.61436e-10
-5.39081e-10
0.0500003
2.00749e-07
-4.80761e-07
0.0500006
1.73575e-07
-4.03653e-07
0.0500008
1.00777e-07
-2.34808e-07
0.0500008
3.63211e-08
-7.32926e-08
0.0500008
6.19212e-09
-3.53509e-09
0.0500008
9.41839e-11
-8.77492e-11
0.0500008
2.23679e-10
-1.25324e-09
0.0500008
1.1636e-09
9.29727e-11
0.0500008
-1.12575e-10
-3.23688e-10
-5.55409e-10
-4.91779e-10
0.0500003
3.65527e-08
-4.80076e-07
0.0500006
3.21895e-08
-4.05033e-07
0.0500008
1.89484e-08
-2.36553e-07
0.0500008
8.63695e-09
-7.43804e-08
0.0500008
3.79077e-09
-3.81746e-09
0.0500008
-5.27837e-11
-1.92486e-11
0.0500008
-3.68601e-10
-1.43947e-09
0.0500008
9.59402e-10
-4.43849e-12
0.0500008
-9.09963e-11
-2.28671e-10
-5.57446e-10
-4.48749e-10
0.0500003
-1.26149e-07
-4.80616e-07
0.0500006
-1.10175e-07
-4.04434e-07
0.0500008
-6.4582e-08
-2.355e-07
0.0500008
-1.99558e-08
-7.38313e-08
0.0500008
9.30914e-10
-3.19142e-09
0.0500008
-1.12938e-10
2.06086e-10
0.0500008
-8.87614e-10
-1.59485e-09
0.0500008
6.67488e-10
-6.34601e-11
0.0500008
-5.98207e-11
-9.56728e-11
-5.16388e-10
-4.14455e-10
0.0500003
-2.92811e-07
-4.80303e-07
0.0500006
-2.51366e-07
-4.04674e-07
0.0500008
-1.46698e-07
-2.35871e-07
0.0500008
-4.67323e-08
-7.44486e-08
0.0500008
-1.23124e-09
-3.43145e-09
0.0500008
1.02163e-10
3.35278e-10
0.0500008
-1.30012e-09
-1.69391e-09
0.0500008
2.56425e-10
-1.41967e-10
0.0500008
1.67926e-11
-3.34231e-11
-3.97065e-10
-3.68715e-10
0.0500003
-4.66945e-07
-4.8033e-07
0.0500006
-3.91573e-07
-4.04602e-07
0.0500008
-2.28057e-07
-2.35859e-07
0.0500008
-7.05289e-08
-7.43924e-08
0.0500008
-1.88359e-09
-3.28372e-09
0.0500008
8.73171e-10
4.93156e-10
0.0500008
-1.6212e-09
-1.75996e-09
0.0500008
-2.21818e-10
-2.78919e-10
0.0500008
6.42473e-11
4.39679e-11
-2.68433e-10
-2.71652e-10
0.0500004
-6.54114e-07
-4.80513e-07
0.0500006
-5.27875e-07
-4.04225e-07
0.0500008
-3.07699e-07
-2.3584e-07
0.0500008
-8.96941e-08
-7.4536e-08
0.0500008
-5.43385e-10
-3.26235e-09
0.0500008
2.09086e-09
6.62116e-10
0.0500008
-1.91258e-09
-1.81569e-09
0.0500008
-6.41132e-10
-2.94368e-10
0.0500008
9.30686e-11
2.99914e-11
-1.6423e-10
-3.38792e-10
0.0499995
-4.8042e-07
0.0499991
-4.04498e-07
0.0499989
-2.3583e-07
0.0499988
-7.45545e-08
0.0499988
-3.41085e-09
0.0499988
7.1929e-10
0.0499988
-1.80295e-09
0.0499988
-3.63293e-10
0.0499988
6.96111e-11
-2.6882e-10
0.0499994
7.43325e-07
-6.60513e-07
0.049999
5.87906e-07
-5.34062e-07
0.0499987
3.41805e-07
-3.11718e-07
0.0499986
1.0257e-07
-9.13937e-08
0.0499986
3.29069e-09
-1.69782e-09
0.0499986
-2.01831e-09
1.38881e-09
0.0499986
1.87891e-09
-1.51493e-09
0.0499986
1.12357e-09
-2.91248e-10
0.0499986
-1.48129e-10
-1.97929e-10
-1.27314e-10
-3.48746e-10
0.0500004
5.49194e-07
-6.6062e-07
0.0500006
4.5376e-07
-5.33655e-07
0.0500008
2.63372e-07
-3.11237e-07
0.0500008
8.51991e-08
-9.11013e-08
0.0500008
6.70635e-09
-1.60357e-09
0.0500008
-7.26109e-10
1.3954e-09
0.0500008
1.26164e-09
-1.61768e-09
0.0500008
1.17966e-09
-3.5574e-10
0.0500008
-7.04593e-11
-1.6142e-10
-2.70246e-10
-3.10871e-10
0.0500004
3.70117e-07
-6.60247e-07
0.0500006
3.15015e-07
-5.34667e-07
0.0500008
1.8301e-07
-3.12192e-07
0.0500008
6.24396e-08
-9.15859e-08
0.0500008
7.60008e-09
-1.64949e-09
0.0500008
5.22953e-11
1.49246e-09
0.0500008
6.64042e-10
-1.65766e-09
0.0500008
1.17128e-09
-3.74992e-10
0.0500008
-2.96081e-11
-1.24422e-10
-3.78607e-10
-3.00871e-10
0.0500003
2.00331e-07
-6.60624e-07
0.0500006
1.74295e-07
-5.33173e-07
0.0500008
1.01379e-07
-3.10568e-07
0.0500008
3.63339e-08
-9.10973e-08
0.0500008
6.36895e-09
-1.40367e-09
0.0500008
2.18813e-10
1.51599e-09
0.0500008
3.90594e-11
-1.73891e-09
0.0500008
1.08497e-09
-4.37705e-10
0.0500008
-2.31527e-13
-9.72082e-11
-4.61063e-10
-2.69873e-10
0.0500003
3.66174e-08
-6.60511e-07
0.0500006
3.25652e-08
-5.3505e-07
0.0500008
1.86632e-08
-3.1256e-07
0.0500008
8.29678e-09
-9.18543e-08
0.0500008
3.94419e-09
-1.43496e-09
0.0500008
1.70992e-10
1.60451e-09
0.0500008
-5.58334e-10
-1.82819e-09
0.0500008
9.0534e-10
-4.51276e-10
0.0500008
7.86039e-12
-5.49559e-11
-5.24061e-10
-2.78925e-10
0.0500003
-1.26481e-07
-6.60952e-07
0.0500006
-1.0952e-07
-5.34078e-07
0.0500008
-6.4057e-08
-3.11163e-07
0.0500008
-1.99599e-08
-9.14072e-08
0.0500008
1.07029e-09
-1.26669e-09
0.0500008
1.67851e-10
1.72278e-09
0.0500008
-9.81813e-10
-1.86388e-09
0.0500008
6.13733e-10
-5.13227e-10
0.0500008
2.33688e-11
2.76041e-12
-5.15112e-10
-2.22394e-10
0.0500003
-2.93121e-07
-6.60334e-07
0.0500006
-2.50959e-07
-5.33838e-07
0.0500008
-1.4667e-07
-3.11651e-07
0.0500008
-4.70654e-08
-9.17531e-08
0.0500008
-1.28138e-09
-1.33104e-09
0.0500008
3.21144e-10
1.80726e-09
0.0500008
-1.41622e-09
-1.93004e-09
0.0500008
2.10591e-10
-5.9759e-10
0.0500008
4.0545e-11
4.93286e-11
-4.34902e-10
-1.9332e-10
0.0500004
-4.67127e-07
-6.60735e-07
0.0500006
-3.91206e-07
-5.34364e-07
0.0500008
-2.28052e-07
-3.11593e-07
0.0500008
-7.06727e-08
-9.16356e-08
0.0500008
-1.86067e-09
-1.27224e-09
0.0500008
1.04532e-09
1.88976e-09
0.0500008
-1.67782e-09
-1.98519e-09
0.0500008
-2.39421e-10
-6.69654e-10
0.0500008
4.52138e-11
8.45792e-11
-3.35755e-10
-1.66132e-10
0.0500004
-6.54078e-07
-6.60696e-07
0.0500006
-5.27377e-07
-5.33894e-07
0.0500008
-3.07489e-07
-3.11407e-07
0.0500008
-8.98167e-08
-9.17645e-08
0.0500008
-6.91621e-10
-1.41827e-09
0.0500008
2.18573e-09
1.98892e-09
0.0500008
-1.91284e-09
-1.98436e-09
0.0500008
-6.8233e-10
-7.10828e-10
0.0500008
1.23356e-10
1.1452e-10