/*--------------------------------*- C++ -*----------------------------------*\
| =========                 |                                                 |
| \\      /  F ield         | OpenFOAM: The Open Source CFD Toolbox           |
|  \\    /   O peration     | Version:  1.7.x                                 |
|   \\  /    A nd           | Web:      www.OpenFOAM.com                      |
|    \\/     M anipulation  |                                                 |
\*---------------------------------------------------------------------------*/
FoamFile
{
    version     2.0;
    format      ascii;
    class       volVectorField;
    location    "0.2";
    object      U;
}
// * * * * * * * * * * * * * * * * * * * * * * * * * * * * * * * * * * * * * //

dimensions      [0 1 -1 0 0 0 0];

internalField   nonuniform List<vector> 
1000
(
(4.55737 1.00279e-05 8.93115e-06)
(5.0571 8.80679e-06 8.02828e-06)
(5.19631 5.22174e-06 4.78028e-06)
(5.01067 1.70962e-06 1.5434e-06)
(4.96522 6.77128e-08 4.25475e-08)
(4.99311 -3.28749e-08 -3.26657e-08)
(5.00195 1.98382e-08 1.77995e-08)
(5.00102 1.25497e-08 1.13928e-08)
(4.99955 -1.17576e-09 -1.34887e-09)
(4.9995 -9.84466e-10 -9.36668e-10)
(4.55742 1.51344e-05 8.93771e-06)
(5.05723 1.25938e-05 8.01863e-06)
(5.19651 7.30946e-06 4.76995e-06)
(5.01089 2.32346e-06 1.54501e-06)
(4.96544 9.76972e-08 4.86925e-08)
(4.99333 -4.18655e-08 -2.94945e-08)
(5.00217 4.29758e-08 2.11681e-08)
(5.00124 3.11428e-08 1.2123e-08)
(4.99977 -5.11349e-09 -2.26397e-09)
(4.99972 -6.8913e-09 -7.84253e-10)
(4.55742 8.76265e-06 8.93427e-06)
(5.05723 6.9813e-06 8.02322e-06)
(5.19651 3.99978e-06 4.77536e-06)
(5.01089 1.30801e-06 1.54856e-06)
(4.96543 1.23688e-07 4.89098e-08)
(4.99333 -1.11948e-08 -2.89863e-08)
(5.00217 4.23884e-08 2.14907e-08)
(5.00124 3.48613e-08 1.22359e-08)
(4.99977 -1.08691e-08 -3.13311e-09)
(4.99972 -1.30635e-08 -1.06222e-09)
(4.55742 5.65891e-06 8.93776e-06)
(5.05723 4.96064e-06 8.02054e-06)
(5.19651 2.9424e-06 4.77795e-06)
(5.01089 1.07107e-06 1.55134e-06)
(4.96543 1.45817e-07 4.87598e-08)
(4.99333 -1.08967e-08 -2.96557e-08)
(5.00217 3.51016e-08 2.18619e-08)
(5.00124 3.5718e-08 1.32728e-08)
(4.99977 -1.61087e-08 -3.3079e-09)
(4.99972 -1.78522e-08 -2.3974e-09)
(4.55742 2.37553e-06 8.93881e-06)
(5.05723 2.06932e-06 8.01082e-06)
(5.19651 1.20824e-06 4.77551e-06)
(5.01089 4.66183e-07 1.54847e-06)
(4.96543 7.42902e-08 4.75234e-08)
(4.99333 -2.08191e-08 -2.98833e-08)
(5.00217 2.81651e-08 2.21893e-08)
(5.00124 3.70504e-08 1.37387e-08)
(4.99977 -1.91788e-08 -2.65844e-09)
(4.99972 -2.1679e-08 -2.11674e-09)
(4.55742 -8.99366e-07 8.9294e-06)
(5.05723 -7.84903e-07 8.02456e-06)
(5.19651 -4.45332e-07 4.7812e-06)
(5.01089 -8.47559e-08 1.54755e-06)
(4.96543 2.64413e-08 4.66156e-08)
(4.99333 -2.26658e-08 -3.03492e-08)
(5.00217 1.87256e-08 2.24733e-08)
(5.00124 3.24546e-08 1.43137e-08)
(4.99977 -1.85469e-08 -3.06862e-09)
(4.99972 -2.10691e-08 -2.1761e-09)
(4.55742 -4.16227e-06 8.93516e-06)
(5.05723 -3.69195e-06 8.0191e-06)
(5.19651 -2.19599e-06 4.77887e-06)
(5.01089 -7.07207e-07 1.54928e-06)
(4.96543 -5.176e-08 4.78099e-08)
(4.99333 -2.59108e-08 -3.13518e-08)
(5.00217 5.90847e-09 2.22934e-08)
(5.00124 2.36645e-08 1.36581e-08)
(4.99977 -1.6913e-08 -3.69822e-09)
(4.99972 -1.89352e-08 -1.98955e-09)
(4.55742 -7.20247e-06 8.93799e-06)
(5.05723 -5.79706e-06 8.0208e-06)
(5.19651 -3.32552e-06 4.77211e-06)
(5.01089 -9.91993e-07 1.54827e-06)
(4.96543 -4.76512e-08 5.03981e-08)
(4.99333 -1.73356e-08 -3.02805e-08)
(5.00217 -7.74749e-09 2.15439e-08)
(5.00124 1.38474e-08 1.38689e-08)
(4.99977 -1.2591e-08 -2.17929e-09)
(4.99972 -1.49715e-08 -1.28951e-09)
(4.55742 -1.31903e-05 8.93062e-06)
(5.05723 -1.11698e-05 8.02802e-06)
(5.19651 -6.5069e-06 4.78367e-06)
(5.01089 -1.98876e-06 1.55336e-06)
(4.96543 -3.40341e-08 5.04671e-08)
(4.99333 2.35325e-08 -2.99136e-08)
(5.00217 -2.5971e-08 2.14662e-08)
(5.00124 -1.50707e-09 1.30007e-08)
(4.99977 -6.50044e-09 -2.34713e-09)
(4.99972 -1.0195e-08 -6.96147e-10)
(4.55738 -8.87796e-06 8.93281e-06)
(5.05711 -7.97668e-06 8.03271e-06)
(5.19633 -4.75395e-06 4.78681e-06)
(5.01069 -1.52979e-06 1.55531e-06)
(4.96523 -4.23613e-08 5.17902e-08)
(4.99313 2.55103e-08 -2.97309e-08)
(5.00197 -1.87248e-08 1.98532e-08)
(5.00104 -6.53697e-09 1.22983e-08)
(4.99957 -2.28486e-09 -1.49267e-09)
(4.99952 -4.0765e-09 -2.38136e-10)
(4.55741 1.00345e-05 1.33908e-05)
(5.05722 8.79716e-06 1.13819e-05)
(5.19649 5.21143e-06 6.62418e-06)
(5.01087 1.71124e-06 2.06072e-06)
(4.96542 7.38664e-08 5.54295e-08)
(4.99331 -2.97085e-08 -4.60956e-08)
(5.00215 2.32036e-08 3.81511e-08)
(5.00122 1.32796e-08 2.8809e-08)
(4.99975 -2.08852e-09 -5.51655e-09)
(4.9997 -8.38571e-10 -6.83819e-09)
(4.55746 1.51376e-05 1.33939e-05)
(5.05736 1.25889e-05 1.13769e-05)
(5.19669 7.30465e-06 6.61925e-06)
(5.01109 2.32867e-06 2.066e-06)
(4.96563 1.04079e-07 6.19117e-08)
(4.99353 -3.81803e-08 -4.23806e-08)
(5.00237 4.66692e-08 4.18439e-08)
(5.00144 3.19863e-08 2.96525e-08)
(4.99997 -6.89257e-09 -7.28995e-09)
(4.99992 -7.02095e-09 -6.96977e-09)
(4.55746 8.76281e-06 1.33856e-05)
(5.05736 6.98342e-06 1.13724e-05)
(5.19669 4.00797e-06 6.61796e-06)
(5.01109 1.31445e-06 2.0582e-06)
(4.96563 1.23783e-07 5.50007e-08)
(4.99353 -1.13574e-08 -4.58237e-08)
(5.00237 4.3078e-08 3.98523e-08)
(5.00144 3.60082e-08 2.82824e-08)
(4.99997 -1.1923e-08 -7.90579e-09)
(4.99992 -1.46866e-08 -6.56073e-09)
(4.55746 5.66352e-06 1.3392e-05)
(5.05735 4.94838e-06 1.13923e-05)
(5.19669 2.94268e-06 6.63517e-06)
(5.01109 1.07105e-06 2.0643e-06)
(4.96563 1.44447e-07 5.50712e-08)
(4.99353 -1.17942e-08 -4.54558e-08)
(5.00237 3.57991e-08 4.02415e-08)
(5.00144 3.72259e-08 2.89796e-08)
(4.99997 -1.56287e-08 -7.54885e-09)
(4.99992 -1.89048e-08 -7.52806e-09)
(4.55746 2.36722e-06 1.33913e-05)
(5.05735 2.07339e-06 1.13606e-05)
(5.19669 1.21153e-06 6.62073e-06)
(5.01109 4.62425e-07 2.05488e-06)
(4.96563 7.21645e-08 5.08911e-08)
(4.99353 -2.15047e-08 -4.53324e-08)
(5.00237 2.87837e-08 3.92345e-08)
(5.00144 3.80994e-08 2.80044e-08)
(4.99997 -1.89381e-08 -6.74212e-09)
(4.99992 -2.14541e-08 -7.08656e-09)
(4.55746 -9.03031e-07 1.3382e-05)
(5.05735 -7.76638e-07 1.13943e-05)
(5.19669 -4.41985e-07 6.63701e-06)
(5.01109 -8.39623e-08 2.06066e-06)
(4.96563 2.67279e-08 5.31439e-08)
(4.99353 -2.41472e-08 -4.43426e-08)
(5.00237 1.88285e-08 3.80241e-08)
(5.00144 3.23756e-08 2.67202e-08)
(4.99997 -1.95874e-08 -5.84655e-09)
(4.99992 -2.09405e-08 -6.09548e-09)
(4.55746 -4.15374e-06 1.33915e-05)
(5.05735 -3.69582e-06 1.13703e-05)
(5.19669 -2.20518e-06 6.61768e-06)
(5.01109 -7.06556e-07 2.05301e-06)
(4.96563 -4.80037e-08 5.44303e-08)
(4.99353 -2.585e-08 -4.30973e-08)
(5.00237 4.97301e-09 3.58579e-08)
(5.00144 2.32172e-08 2.55157e-08)
(4.99997 -1.60317e-08 -4.86061e-09)
(4.99992 -1.806e-08 -5.28746e-09)
(4.55746 -7.20711e-06 1.33878e-05)
(5.05735 -5.78832e-06 1.13818e-05)
(5.19669 -3.32089e-06 6.62509e-06)
(5.01109 -9.87988e-07 2.05741e-06)
(4.96563 -4.50177e-08 6.03068e-08)
(4.99353 -1.58925e-08 -4.00623e-08)
(5.00237 -8.56491e-09 3.39433e-08)
(5.00144 1.31965e-08 2.48329e-08)
(4.99997 -1.12453e-08 -3.36145e-09)
(4.99992 -1.3677e-08 -4.52425e-09)
(4.55746 -1.31955e-05 1.3394e-05)
(5.05736 -1.1158e-05 1.13698e-05)
(5.19669 -6.49228e-06 6.61026e-06)
(5.01109 -1.98175e-06 2.0517e-06)
(4.96563 -3.26513e-08 5.89572e-08)
(4.99353 2.40709e-08 -4.03756e-08)
(5.00237 -2.76602e-08 3.11107e-08)
(5.00144 -3.07615e-09 2.31668e-08)
(4.99997 -5.80359e-09 -2.92011e-09)
(4.99992 -9.13822e-09 -3.59614e-09)
(4.55742 -8.87577e-06 1.33953e-05)
(5.05723 -7.972e-06 1.13638e-05)
(5.19651 -4.75081e-06 6.60897e-06)
(5.01089 -1.52784e-06 2.04948e-06)
(4.96543 -4.10455e-08 6.0339e-08)
(4.99333 2.56925e-08 -3.85028e-08)
(5.00217 -2.03501e-08 3.00665e-08)
(5.00124 -7.23991e-09 2.25144e-08)
(4.99977 -1.42767e-09 -1.57683e-09)
(4.99972 -3.61915e-09 -3.02148e-09)
(4.55741 1.0031e-05 7.55541e-06)
(5.05722 8.80166e-06 6.10842e-06)
(5.19649 5.21672e-06 3.49912e-06)
(5.01087 1.71485e-06 1.09865e-06)
(4.96541 7.41762e-08 7.97352e-08)
(4.99331 -2.91606e-08 -2.05765e-08)
(5.00215 2.35417e-08 3.69452e-08)
(5.00122 1.33908e-08 3.24721e-08)
(4.99975 -2.95675e-09 -1.13799e-08)
(4.9997 -1.11028e-09 -1.30898e-08)
(4.55746 1.51292e-05 7.55549e-06)
(5.05736 1.25843e-05 6.11104e-06)
(5.19669 7.30325e-06 3.50773e-06)
(5.01109 2.32094e-06 1.10543e-06)
(4.96563 9.72706e-08 7.99257e-08)
(4.99353 -4.15922e-08 -2.06433e-08)
(5.00237 4.46716e-08 3.76885e-08)
(5.00144 3.06261e-08 3.36323e-08)
(4.99997 -7.49977e-09 -1.24239e-08)
(4.99992 -6.61019e-09 -1.4703e-08)
(4.55746 8.76082e-06 7.55401e-06)
(5.05735 6.99689e-06 6.12399e-06)
(5.19669 4.01589e-06 3.5155e-06)
(5.01109 1.30642e-06 1.09746e-06)
(4.96563 1.16884e-07 7.30619e-08)
(4.99353 -1.42612e-08 -2.3659e-08)
(5.00237 4.07813e-08 3.53337e-08)
(5.00144 3.41919e-08 3.17949e-08)
(4.99997 -1.11343e-08 -1.16366e-08)
(4.99992 -1.36186e-08 -1.36374e-08)
(4.55746 5.66467e-06 7.55678e-06)
(5.05735 4.94902e-06 6.14007e-06)
(5.19669 2.9453e-06 3.52164e-06)
(5.01109 1.06782e-06 1.09845e-06)
(4.96563 1.41731e-07 7.31825e-08)
(4.99353 -1.04054e-08 -2.18121e-08)
(5.00237 3.44906e-08 3.46029e-08)
(5.00144 3.54342e-08 3.18991e-08)
(4.99997 -1.49462e-08 -1.10871e-08)
(4.99992 -1.83815e-08 -1.33743e-08)
(4.55746 2.36562e-06 7.55563e-06)
(5.05735 2.07137e-06 6.12174e-06)
(5.19669 1.21012e-06 3.51442e-06)
(5.01109 4.62561e-07 1.09091e-06)
(4.96563 7.23674e-08 7.06735e-08)
(4.99353 -1.97057e-08 -2.0536e-08)
(5.00237 2.59443e-08 3.15005e-08)
(5.00144 3.47962e-08 2.95585e-08)
(4.99997 -1.74848e-08 -9.67346e-09)
(4.99992 -2.02559e-08 -1.16287e-08)
(4.55746 -8.99197e-07 7.56009e-06)
(5.05735 -7.75268e-07 6.14018e-06)
(5.19669 -4.48408e-07 3.52182e-06)
(5.01109 -8.66453e-08 1.09611e-06)
(4.96563 2.99871e-08 7.55714e-08)
(4.99353 -2.04311e-08 -1.77967e-08)
(5.00237 1.53524e-08 2.68812e-08)
(5.00144 2.99647e-08 2.65073e-08)
(4.99997 -1.66669e-08 -7.1955e-09)
(4.99992 -1.92674e-08 -9.91677e-09)
(4.55746 -4.15653e-06 7.55858e-06)
(5.05735 -3.70452e-06 6.11696e-06)
(5.19669 -2.20801e-06 3.50211e-06)
(5.01109 -7.10507e-07 1.08962e-06)
(4.96563 -4.4609e-08 7.9729e-08)
(4.99353 -2.16365e-08 -1.38916e-08)
(5.00237 1.82133e-09 2.25408e-08)
(5.00144 2.17836e-08 2.47919e-08)
(4.99997 -1.44237e-08 -4.22573e-09)
(4.99992 -1.73683e-08 -8.94465e-09)
(4.55746 -7.20004e-06 7.55284e-06)
(5.05735 -5.79771e-06 6.13281e-06)
(5.19669 -3.3331e-06 3.5141e-06)
(5.01109 -9.93395e-07 1.09187e-06)
(4.96563 -4.3149e-08 8.35972e-08)
(4.99353 -1.46337e-08 -1.20205e-08)
(5.00237 -1.24997e-08 1.8163e-08)
(5.00144 1.14917e-08 2.28842e-08)
(4.99997 -1.06495e-08 -2.61367e-09)
(4.99992 -1.32853e-08 -7.96733e-09)
(4.55746 -1.31828e-05 7.55237e-06)
(5.05735 -1.11878e-05 6.12836e-06)
(5.19669 -6.52302e-06 3.51455e-06)
(5.01109 -1.99669e-06 1.09217e-06)
(4.96563 -3.40025e-08 8.83894e-08)
(4.99353 2.50764e-08 -9.61541e-09)
(5.00237 -2.98525e-08 1.41026e-08)
(5.00144 -3.83405e-09 2.10637e-08)
(4.99997 -4.72858e-09 -9.31636e-10)
(4.99992 -8.70277e-09 -7.15824e-09)
(4.55742 -8.87657e-06 7.55242e-06)
(5.05723 -7.9826e-06 6.14004e-06)
(5.19651 -4.75516e-06 3.52735e-06)
(5.01089 -1.53196e-06 1.09319e-06)
(4.96543 -4.09652e-08 8.92493e-08)
(4.99333 2.73924e-08 -8.6362e-09)
(5.00217 -1.97749e-08 1.39632e-08)
(5.00124 -7.19505e-09 2.05794e-08)
(4.99977 -9.50187e-10 -5.09951e-10)
(4.99972 -3.50555e-09 -6.78063e-09)
(4.55741 1.00345e-05 4.64321e-06)
(5.05722 8.79959e-06 4.14182e-06)
(5.19649 5.21987e-06 2.46451e-06)
(5.01087 1.71793e-06 8.58405e-07)
(4.96541 7.40369e-08 8.94572e-08)
(4.99331 -2.97727e-08 -2.26969e-08)
(5.00215 2.39439e-08 2.95698e-08)
(5.00122 1.4445e-08 3.32755e-08)
(4.99975 -3.13009e-09 -1.67024e-08)
(4.9997 -2.44445e-09 -1.79163e-08)
(4.55746 1.51361e-05 4.64613e-06)
(5.05735 1.26042e-05 4.13084e-06)
(5.19669 7.32087e-06 2.46643e-06)
(5.01109 2.32739e-06 8.58883e-07)
(4.96563 9.73747e-08 8.79539e-08)
(4.99353 -4.12667e-08 -2.35777e-08)
(5.00237 4.50514e-08 3.02823e-08)
(5.00144 3.13055e-08 3.47925e-08)
(4.99997 -7.14914e-09 -1.6228e-08)
(4.99992 -7.57222e-09 -1.89696e-08)
(4.55746 8.7641e-06 4.64465e-06)
(5.05735 7.01246e-06 4.13108e-06)
(5.19669 4.02188e-06 2.46979e-06)
(5.01109 1.30746e-06 8.55634e-07)
(4.96563 1.17026e-07 8.54999e-08)
(4.99353 -1.25178e-08 -2.22134e-08)
(5.00237 4.00024e-08 2.89257e-08)
(5.00144 3.42703e-08 3.29762e-08)
(4.99997 -1.05847e-08 -1.555e-08)
(4.99992 -1.33581e-08 -1.84476e-08)
(4.55746 5.66515e-06 4.64694e-06)
(5.05735 4.94612e-06 4.12832e-06)
(5.19669 2.94159e-06 2.46471e-06)
(5.01109 1.0645e-06 8.51387e-07)
(4.96563 1.42058e-07 8.6004e-08)
(4.99353 -8.67634e-09 -2.04013e-08)
(5.00237 3.19645e-08 2.64168e-08)
(5.00144 3.49833e-08 3.25325e-08)
(4.99997 -1.36681e-08 -1.42737e-08)
(4.99992 -1.69033e-08 -1.69658e-08)
(4.55746 2.37052e-06 4.64417e-06)
(5.05735 2.07351e-06 4.1475e-06)
(5.19669 1.21172e-06 2.47243e-06)
(5.01109 4.60083e-07 8.55283e-07)
(4.96563 7.45396e-08 9.19751e-08)
(4.99353 -1.75028e-08 -1.79696e-08)
(5.00237 2.10511e-08 2.20075e-08)
(5.00144 3.27023e-08 3.01145e-08)
(4.99997 -1.50579e-08 -1.17831e-08)
(4.99992 -1.80003e-08 -1.51327e-08)
(4.55746 -9.00092e-07 4.64465e-06)
(5.05735 -7.81432e-07 4.11377e-06)
(5.19669 -4.54302e-07 2.4498e-06)
(5.01109 -8.5255e-08 8.4914e-07)
(4.96563 3.57893e-08 9.80167e-08)
(4.99353 -1.75057e-08 -1.28828e-08)
(5.00237 9.85877e-09 1.59479e-08)
(5.00144 2.76002e-08 2.83528e-08)
(4.99997 -1.41404e-08 -7.77767e-09)
(4.99992 -1.82573e-08 -1.39182e-08)
(4.55746 -4.161e-06 4.64298e-06)
(5.05735 -3.70319e-06 4.13224e-06)
(5.19669 -2.21291e-06 2.46617e-06)
(5.01109 -7.10785e-07 8.52716e-07)
(4.96563 -3.99739e-08 1.03026e-07)
(4.99353 -2.00841e-08 -9.2376e-09)
(5.00237 -3.74298e-09 1.14361e-08)
(5.00144 1.9591e-08 2.48455e-08)
(4.99997 -1.14479e-08 -5.56482e-09)
(4.99992 -1.61117e-08 -1.18851e-08)
(4.55746 -7.21332e-06 4.6408e-06)
(5.05735 -5.77692e-06 4.13984e-06)
(5.19669 -3.30845e-06 2.46588e-06)
(5.01109 -9.85436e-07 8.48153e-07)
(4.96563 -3.63653e-08 1.05866e-07)
(4.99353 -1.16225e-08 -7.84915e-09)
(5.00237 -1.70082e-08 5.55264e-09)
(5.00144 9.45754e-09 2.25306e-08)
(4.99997 -7.95559e-09 -2.92373e-09)
(4.99992 -1.18949e-08 -1.07611e-08)
(4.55746 -1.31959e-05 4.6451e-06)
(5.05735 -1.11506e-05 4.13664e-06)
(5.19669 -6.47886e-06 2.46663e-06)
(5.01109 -1.98036e-06 8.40254e-07)
(4.96563 -2.69779e-08 1.06063e-07)
(4.99353 2.74651e-08 -5.60839e-09)
(5.00237 -3.18738e-08 1.91896e-09)
(5.00144 -5.38036e-09 2.01138e-08)
(4.99997 -3.70698e-09 -9.73205e-10)
(4.99992 -7.95989e-09 -8.19077e-09)
(4.55742 -8.87562e-06 4.63829e-06)
(5.05723 -7.96013e-06 4.13442e-06)
(5.19651 -4.73785e-06 2.46353e-06)
(5.01089 -1.52674e-06 8.41518e-07)
(4.96543 -4.01509e-08 1.09842e-07)
(4.99333 2.66733e-08 -4.39923e-09)
(5.00217 -2.04926e-08 5.49863e-10)
(5.00124 -7.72369e-09 2.00989e-08)
(4.99977 -1.01671e-09 -3.15471e-10)
(4.99972 -3.24864e-09 -9.47015e-09)
(4.55741 1.00338e-05 1.55334e-06)
(5.05722 8.79055e-06 1.36742e-06)
(5.19649 5.21854e-06 7.9753e-07)
(5.01087 1.71526e-06 2.7705e-07)
(4.96541 7.26487e-08 1.76144e-08)
(4.99331 -3.00422e-08 -3.45014e-08)
(5.00215 2.42514e-08 2.25536e-08)
(5.00122 1.4898e-08 3.46394e-08)
(4.99975 -2.48408e-09 -1.98213e-08)
(4.9997 -2.16055e-09 -2.17699e-08)
(4.55746 1.51306e-05 1.54599e-06)
(5.05735 1.25734e-05 1.37096e-06)
(5.19669 7.30842e-06 7.989e-07)
(5.01109 2.31811e-06 2.72735e-07)
(4.96563 9.32907e-08 1.55032e-08)
(4.99353 -4.11107e-08 -3.51991e-08)
(5.00237 4.40376e-08 2.3162e-08)
(5.00144 3.03275e-08 3.56886e-08)
(4.99997 -6.34887e-09 -1.95808e-08)
(4.99992 -7.13854e-09 -2.15434e-08)
(4.55746 8.76165e-06 1.54552e-06)
(5.05735 6.99437e-06 1.36956e-06)
(5.19669 4.01417e-06 7.96652e-07)
(5.01109 1.29892e-06 2.72183e-07)
(4.96563 1.14941e-07 1.56192e-08)
(4.99353 -1.10793e-08 -3.34235e-08)
(5.00237 3.69185e-08 2.02812e-08)
(5.00144 3.19381e-08 3.23688e-08)
(4.99997 -9.16854e-09 -1.81242e-08)
(4.99992 -1.16129e-08 -2.03454e-08)
(4.55746 5.6642e-06 1.55015e-06)
(5.05735 4.96543e-06 1.37605e-06)
(5.19669 2.94794e-06 8.0064e-07)
(5.01109 1.06748e-06 2.70669e-07)
(4.96563 1.48203e-07 1.82708e-08)
(4.99353 -6.17308e-09 -3.11136e-08)
(5.00237 2.7567e-08 1.53941e-08)
(5.00144 3.25748e-08 3.0293e-08)
(4.99997 -1.1174e-08 -1.56908e-08)
(4.99992 -1.50629e-08 -1.80869e-08)
(4.55746 2.36332e-06 1.54247e-06)
(5.05735 2.05681e-06 1.35702e-06)
(5.19669 1.19521e-06 7.84125e-07)
(5.01109 4.60306e-07 2.70477e-07)
(4.96563 8.43794e-08 2.75076e-08)
(4.99353 -1.21828e-08 -2.58826e-08)
(5.00237 1.54764e-08 9.88654e-09)
(5.00144 3.06136e-08 2.81999e-08)
(4.99997 -1.09924e-08 -1.16278e-08)
(4.99992 -1.72092e-08 -1.72974e-08)
(4.55746 -9.00395e-07 1.54274e-06)
(5.05735 -7.90524e-07 1.34453e-06)
(5.19669 -4.54662e-07 7.87965e-07)
(5.01109 -8.92168e-08 2.66923e-07)
(4.96563 4.10286e-08 3.30491e-08)
(4.99353 -1.16956e-08 -2.05457e-08)
(5.00237 4.76783e-09 4.44495e-09)
(5.00144 2.47032e-08 2.49269e-08)
(4.99997 -1.04519e-08 -8.10135e-09)
(4.99992 -1.60335e-08 -1.48889e-08)
(4.55746 -4.16036e-06 1.54686e-06)
(5.05735 -3.67844e-06 1.36788e-06)
(5.19669 -2.19192e-06 7.92999e-07)
(5.01109 -7.11492e-07 2.58253e-07)
(4.96563 -3.67634e-08 3.33568e-08)
(4.99353 -1.65987e-08 -1.84405e-08)
(5.00237 -8.57486e-09 -1.88182e-09)
(5.00144 1.59697e-08 2.07537e-08)
(4.99997 -9.56791e-09 -6.07156e-09)
(4.99992 -1.42024e-08 -1.23225e-08)
(4.55746 -7.19792e-06 1.54959e-06)
(5.05735 -5.79331e-06 1.35624e-06)
(5.19669 -3.33264e-06 7.86835e-07)
(5.01109 -1.00586e-06 2.5463e-07)
(4.96563 -4.01172e-08 4.00509e-08)
(4.99353 -1.09981e-08 -1.39072e-08)
(5.00237 -2.20091e-08 -7.27122e-09)
(5.00144 6.75603e-09 1.88595e-08)
(4.99997 -6.05772e-09 -3.08689e-09)
(4.99992 -9.58375e-09 -1.14151e-08)
(4.55746 -1.31853e-05 1.55446e-06)
(5.05735 -1.11931e-05 1.35776e-06)
(5.19669 -6.52528e-06 7.80454e-07)
(5.01109 -2.00328e-06 2.46691e-07)
(4.96563 -3.00005e-08 4.27108e-08)
(4.99353 2.85326e-08 -1.05983e-08)
(5.00237 -3.48606e-08 -1.14648e-08)
(5.00144 -6.27749e-09 1.73351e-08)
(4.99997 -2.12057e-09 -6.30546e-10)
(4.99992 -7.41649e-09 -9.75606e-09)
(4.55742 -8.88332e-06 1.5467e-06)
(5.05723 -7.9847e-06 1.33767e-06)
(5.19651 -4.75816e-06 7.69448e-07)
(5.01089 -1.53064e-06 2.42543e-07)
(4.96543 -3.71639e-08 4.37499e-08)
(4.99333 2.85939e-08 -8.85725e-09)
(5.00217 -2.1142e-08 -1.17844e-08)
(5.00124 -7.20573e-09 1.68695e-08)
(4.99977 -2.95527e-10 6.02119e-10)
(4.99972 -4.79218e-09 -9.9008e-09)
(4.55741 1.00271e-05 -1.54691e-06)
(5.05722 8.80308e-06 -1.36471e-06)
(5.19649 5.2212e-06 -7.8836e-07)
(5.01087 1.7136e-06 -2.49698e-07)
(4.96541 7.19081e-08 -2.83153e-08)
(4.99331 -3.04593e-08 -3.6315e-08)
(5.00215 2.45598e-08 1.35288e-08)
(5.00122 1.54874e-08 3.02438e-08)
(4.99975 -2.88884e-09 -1.91645e-08)
(4.9997 -2.22414e-09 -2.11635e-08)
(4.55746 1.51283e-05 -1.54815e-06)
(5.05735 1.26063e-05 -1.35726e-06)
(5.19669 7.31995e-06 -7.86679e-07)
(5.01109 2.32251e-06 -2.48816e-07)
(4.96563 9.53785e-08 -2.71982e-08)
(4.99353 -4.0184e-08 -3.7595e-08)
(5.00237 4.27922e-08 1.36687e-08)
(5.00144 2.90481e-08 3.01845e-08)
(4.99997 -5.454e-09 -2.0203e-08)
(4.99992 -6.14067e-09 -2.10433e-08)
(4.55746 8.76825e-06 -1.54138e-06)
(5.05735 7.01756e-06 -1.35723e-06)
(5.19669 4.02363e-06 -7.95186e-07)
(5.01109 1.3054e-06 -2.52114e-07)
(4.96563 1.1981e-07 -2.41932e-08)
(4.99353 -8.43143e-09 -3.37656e-08)
(5.00237 3.22362e-08 1.01846e-08)
(5.00144 2.88786e-08 2.77632e-08)
(4.99997 -6.68564e-09 -1.72869e-08)
(4.99992 -9.89066e-09 -1.93718e-08)
(4.55746 5.6621e-06 -1.5427e-06)
(5.05735 4.93358e-06 -1.35911e-06)
(5.19669 2.92907e-06 -7.98553e-07)
(5.01109 1.0628e-06 -2.5041e-07)
(4.96563 1.53961e-07 -1.72942e-08)
(4.99353 -1.13025e-09 -3.08405e-08)
(5.00237 2.1572e-08 4.75252e-09)
(5.00144 3.08137e-08 2.54013e-08)
(4.99997 -7.17571e-09 -1.47539e-08)
(4.99992 -1.38566e-08 -1.83579e-08)
(4.55746 2.36312e-06 -1.54351e-06)
(5.05735 2.04198e-06 -1.36944e-06)
(5.19669 1.19903e-06 -7.97397e-07)
(5.01109 4.56334e-07 -2.5287e-07)
(4.96563 8.93161e-08 -1.15125e-08)
(4.99353 -6.93092e-09 -2.50219e-08)
(5.00237 1.01065e-08 -4.31078e-10)
(5.00144 2.73395e-08 2.24929e-08)
(4.99997 -7.46183e-09 -1.10685e-08)
(4.99992 -1.48004e-08 -1.61289e-08)
(4.55746 -8.95695e-07 -1.53919e-06)
(5.05735 -7.70569e-07 -1.34878e-06)
(5.19669 -4.45418e-07 -7.90648e-07)
(5.01109 -9.74816e-08 -2.63006e-07)
(4.96563 4.16329e-08 -1.06996e-08)
(4.99353 -1.00564e-08 -2.33168e-08)
(5.00237 -1.91354e-09 -7.04491e-09)
(5.00144 2.01498e-08 1.79349e-08)
(4.99997 -8.58291e-09 -9.1907e-09)
(4.99992 -1.328e-08 -1.33835e-08)
(4.55746 -4.15414e-06 -1.55121e-06)
(5.05735 -3.69147e-06 -1.34168e-06)
(5.19669 -2.21402e-06 -7.86561e-07)
(5.01109 -7.23082e-07 -2.58944e-07)
(4.96563 -3.29707e-08 5.45801e-10)
(4.99353 -1.344e-08 -1.7674e-08)
(5.00237 -1.54583e-08 -1.45946e-08)
(5.00144 1.35238e-08 1.61634e-08)
(4.99997 -6.42234e-09 -5.0096e-09)
(4.99992 -1.26288e-08 -1.3316e-08)
(4.55746 -7.20571e-06 -1.5414e-06)
(5.05735 -5.78703e-06 -1.35423e-06)
(5.19669 -3.321e-06 -7.95314e-07)
(5.01109 -9.97004e-07 -2.71962e-07)
(4.96563 -2.70056e-08 7.44692e-10)
(4.99353 -3.78423e-09 -1.42554e-08)
(5.00237 -2.65913e-08 -1.8811e-08)
(5.00144 6.04077e-09 1.44857e-08)
(4.99997 -2.50941e-09 -2.21311e-09)
(4.99992 -9.32423e-09 -1.13715e-08)
(4.55746 -1.31987e-05 -1.55504e-06)
(5.05735 -1.11691e-05 -1.34821e-06)
(5.19669 -6.49622e-06 -7.82201e-07)
(5.01109 -1.99243e-06 -2.66031e-07)
(4.96563 -2.3268e-08 8.7604e-09)
(4.99353 3.2519e-08 -7.56222e-09)
(5.00237 -3.63909e-08 -2.16564e-08)
(5.00144 -7.36666e-09 1.40468e-08)
(4.99997 -2.63822e-11 -9.46693e-11)
(4.99992 -6.44597e-09 -1.181e-08)
(4.55742 -8.88336e-06 -1.54487e-06)
(5.05723 -7.98019e-06 -1.32965e-06)
(5.19651 -4.74881e-06 -7.74608e-07)
(5.01089 -1.53086e-06 -2.68901e-07)
(4.96543 -3.90988e-08 6.18854e-09)
(4.99333 2.84214e-08 -7.24895e-09)
(5.00217 -2.08116e-08 -2.19717e-08)
(5.00124 -8.1894e-09 1.16775e-08)
(4.99977 2.18816e-10 7.70205e-10)
(4.99972 -3.39355e-09 -9.7795e-09)
(4.55741 1.00326e-05 -4.64484e-06)
(5.05722 8.79804e-06 -4.1356e-06)
(5.19649 5.22026e-06 -2.46076e-06)
(5.01087 1.71617e-06 -8.36582e-07)
(4.96541 7.3779e-08 -9.69908e-08)
(4.99331 -3.13299e-08 -3.8264e-08)
(5.00215 2.43879e-08 1.50641e-09)
(5.00122 1.48329e-08 2.1824e-08)
(4.99975 -3.52392e-09 -1.74514e-08)
(4.9997 -2.03696e-09 -1.90363e-08)
(4.55746 1.51362e-05 -4.63668e-06)
(5.05735 1.25809e-05 -4.13929e-06)
(5.19669 7.30165e-06 -2.46877e-06)
(5.01109 2.31571e-06 -8.35609e-07)
(4.96563 9.74245e-08 -9.26341e-08)
(4.99353 -3.85604e-08 -3.81157e-08)
(5.00237 4.06837e-08 5.3226e-10)
(5.00144 2.78423e-08 2.13675e-08)
(4.99997 -4.47198e-09 -1.65725e-08)
(4.99992 -5.34255e-09 -1.81548e-08)
(4.55746 8.76709e-06 -4.64137e-06)
(5.05735 6.99254e-06 -4.14874e-06)
(5.19669 4.0023e-06 -2.47062e-06)
(5.01109 1.29733e-06 -8.38791e-07)
(4.96563 1.24844e-07 -8.94544e-08)
(4.99353 -4.32124e-09 -3.35878e-08)
(5.00237 2.80166e-08 -2.53084e-09)
(5.00144 2.71646e-08 1.99447e-08)
(4.99997 -3.71836e-09 -1.49567e-08)
(4.99992 -8.92369e-09 -1.74605e-08)
(4.55746 5.66206e-06 -4.64407e-06)
(5.05735 4.95324e-06 -4.14818e-06)
(5.19669 2.94572e-06 -2.47768e-06)
(5.01109 1.06673e-06 -8.40736e-07)
(4.96563 1.60887e-07 -8.43913e-08)
(4.99353 2.57593e-09 -3.23348e-08)
(5.00237 1.69581e-08 -8.13515e-09)
(5.00144 2.73004e-08 1.77327e-08)
(4.99997 -4.95419e-09 -1.19934e-08)
(4.99992 -1.18216e-08 -1.6207e-08)
(4.55746 2.36683e-06 -4.64504e-06)
(5.05735 2.06713e-06 -4.12104e-06)
(5.19669 1.20311e-06 -2.45302e-06)
(5.01109 4.47708e-07 -8.38217e-07)
(4.96563 9.09729e-08 -8.00339e-08)
(4.99353 -4.66024e-09 -2.85484e-08)
(5.00237 3.67616e-09 -1.30471e-08)
(5.00144 2.31439e-08 1.40861e-08)
(4.99997 -5.42691e-09 -1.00972e-08)
(4.99992 -1.22348e-08 -1.43002e-08)
(4.55746 -9.08097e-07 -4.63672e-06)
(5.05735 -7.62772e-07 -4.13624e-06)
(5.19669 -4.43827e-07 -2.48075e-06)
(5.01109 -9.52945e-08 -8.53465e-07)
(4.96563 5.31008e-08 -7.68873e-08)
(4.99353 -4.34795e-09 -2.55997e-08)
(5.00237 -9.38966e-09 -1.99395e-08)
(5.00144 1.83745e-08 1.16074e-08)
(4.99997 -4.39104e-09 -6.95161e-09)
(4.99992 -1.32111e-08 -1.27208e-08)
(4.55746 -4.16256e-06 -4.64602e-06)
(5.05735 -3.6839e-06 -4.12796e-06)
(5.19669 -2.19659e-06 -2.46248e-06)
(5.01109 -7.2043e-07 -8.50655e-07)
(4.96563 -2.53125e-08 -6.96768e-08)
(4.99353 -7.52791e-09 -1.97139e-08)
(5.00237 -2.03394e-08 -2.47994e-08)
(5.00144 1.25182e-08 1.06534e-08)
(4.99997 -2.59104e-09 -3.13671e-09)
(4.99992 -1.21896e-08 -1.22879e-08)
(4.55746 -7.20175e-06 -4.6456e-06)
(5.05735 -5.79984e-06 -4.1334e-06)
(5.19669 -3.32828e-06 -2.46748e-06)
(5.01109 -1.01294e-06 -8.55794e-07)
(4.96563 -3.191e-08 -6.64261e-08)
(4.99353 -8.84716e-10 -1.4602e-08)
(5.00237 -2.90738e-08 -2.73302e-08)
(5.00144 4.64201e-09 8.1642e-09)
(4.99997 -1.14452e-09 -6.57604e-10)
(4.99992 -8.08309e-09 -9.77911e-09)
(4.55746 -1.31888e-05 -4.63811e-06)
(5.05735 -1.11685e-05 -4.12825e-06)
(5.19669 -6.50461e-06 -2.47075e-06)
(5.01109 -2.00024e-06 -8.66812e-07)
(4.96563 -2.4576e-08 -6.96437e-08)
(4.99353 3.55182e-08 -1.09174e-08)
(5.00237 -3.80221e-08 -2.88055e-08)
(5.00144 -9.09065e-09 5.88901e-09)
(4.99997 8.53377e-10 1.58466e-10)
(4.99992 -5.8332e-09 -8.60825e-09)
(4.55742 -8.87317e-06 -4.63899e-06)
(5.05723 -7.96617e-06 -4.13693e-06)
(5.19651 -4.75059e-06 -2.47438e-06)
(5.01089 -1.53353e-06 -8.62828e-07)
(4.96543 -3.97397e-08 -6.7961e-08)
(4.99333 2.89118e-08 -9.03945e-09)
(5.00217 -2.14579e-08 -3.01668e-08)
(5.00124 -9.5885e-09 4.07913e-09)
(4.99977 5.71599e-10 1.09053e-09)
(4.99972 -2.75945e-09 -7.96729e-09)
(4.55741 1.00353e-05 -7.54773e-06)
(5.05722 8.79951e-06 -6.12685e-06)
(5.19649 5.2133e-06 -3.52364e-06)
(5.01087 1.71463e-06 -1.08741e-06)
(4.96541 7.62896e-08 -7.8683e-08)
(4.99331 -3.02987e-08 -2.58045e-08)
(5.00215 2.35957e-08 -1.12304e-08)
(5.00122 1.50351e-08 1.24444e-08)
(4.99975 -2.01009e-09 -1.30024e-08)
(4.9997 -1.33741e-09 -1.50449e-08)
(4.55746 1.51318e-05 -7.55307e-06)
(5.05736 1.25933e-05 -6.11827e-06)
(5.19669 7.3102e-06 -3.51889e-06)
(5.01109 2.32037e-06 -1.08386e-06)
(4.96563 1.0293e-07 -7.5481e-08)
(4.99353 -3.54987e-08 -2.44445e-08)
(5.00237 3.87527e-08 -1.2113e-08)
(5.00144 2.71662e-08 1.17707e-08)
(4.99997 -2.96818e-09 -1.1664e-08)
(4.99992 -4.57351e-09 -1.37574e-08)
(4.55746 8.76087e-06 -7.54551e-06)
(5.05735 7.00867e-06 -6.12572e-06)
(5.19669 4.01473e-06 -3.53033e-06)
(5.01109 1.30027e-06 -1.08886e-06)
(4.96563 1.28058e-07 -7.42518e-08)
(4.99353 -2.65446e-09 -2.33703e-08)
(5.00237 2.35651e-08 -1.60154e-08)
(5.00144 2.52412e-08 1.01026e-08)
(4.99997 -2.10901e-09 -1.10575e-08)
(4.99992 -7.94228e-09 -1.33565e-08)
(4.55746 5.65843e-06 -7.56005e-06)
(5.05735 4.96127e-06 -6.10728e-06)
(5.19669 2.94666e-06 -3.5063e-06)
(5.01109 1.06336e-06 -1.0805e-06)
(4.96563 1.63374e-07 -6.7098e-08)
(4.99353 3.91018e-09 -2.13602e-08)
(5.00237 1.10548e-08 -2.05766e-08)
(5.00144 2.49423e-08 8.07639e-09)
(4.99997 -2.31986e-09 -8.37656e-09)
(4.99992 -1.06959e-08 -1.19699e-08)
(4.55746 2.37047e-06 -7.54375e-06)
(5.05735 2.05391e-06 -6.11982e-06)
(5.19669 1.19594e-06 -3.5304e-06)
(5.01109 4.43604e-07 -1.10237e-06)
(4.96563 9.68175e-08 -7.21361e-08)
(4.99353 -2.00276e-10 -2.07747e-08)
(5.00237 -1.70758e-09 -2.55101e-08)
(5.00144 2.12024e-08 5.40795e-09)
(4.99997 -2.4314e-09 -6.44241e-09)
(4.99992 -1.13245e-08 -9.65652e-09)
(4.55746 -8.96683e-07 -7.55197e-06)
(5.05735 -7.77486e-07 -6.12157e-06)
(5.19669 -4.54885e-07 -3.51911e-06)
(5.01109 -1.0992e-07 -1.09173e-06)
(4.96563 5.19906e-08 -5.84855e-08)
(4.99353 -1.22894e-09 -1.43405e-08)
(5.00237 -1.36581e-08 -3.01471e-08)
(5.00144 1.67154e-08 4.69272e-09)
(4.99997 -1.62273e-09 -2.92245e-09)
(4.99992 -1.12721e-08 -9.40547e-09)
(4.55746 -4.16303e-06 -7.54874e-06)
(5.05735 -3.68862e-06 -6.13029e-06)
(5.19669 -2.20076e-06 -3.52515e-06)
(5.01109 -7.25406e-07 -1.10843e-06)
(4.96563 -2.25114e-08 -6.46044e-08)
(4.99353 -2.4417e-09 -1.13631e-08)
(5.00237 -2.28572e-08 -3.26318e-08)
(5.00144 1.00767e-08 3.20162e-09)
(4.99997 -1.2581e-10 -1.56439e-09)
(4.99992 -9.68798e-09 -8.16074e-09)
(4.55746 -7.1978e-06 -7.54445e-06)
(5.05735 -5.78731e-06 -6.11878e-06)
(5.19669 -3.32928e-06 -3.52736e-06)
(5.01109 -1.01316e-06 -1.10895e-06)
(4.96563 -2.69831e-08 -5.95448e-08)
(4.99353 5.00615e-09 -5.77837e-09)
(5.00237 -3.06078e-08 -3.41738e-08)
(5.00144 1.27491e-09 -2.05289e-10)
(4.99997 7.76115e-10 3.12757e-10)
(4.99992 -5.64826e-09 -5.72892e-09)
(4.55746 -1.31922e-05 -7.55119e-06)
(5.05735 -1.11728e-05 -6.10831e-06)
(5.19669 -6.50324e-06 -3.52546e-06)
(5.01109 -1.99953e-06 -1.11095e-06)
(4.96563 -2.48195e-08 -5.82454e-08)
(4.99353 3.80743e-08 -1.33055e-09)
(5.00237 -3.92343e-08 -3.60478e-08)
(5.00144 -1.14516e-08 -7.2125e-10)
(4.99997 1.71455e-09 1.56739e-10)
(4.99992 -4.63988e-09 -8.20655e-09)
(4.55742 -8.88429e-06 -7.55363e-06)
(5.05723 -7.989e-06 -6.11718e-06)
(5.19651 -4.75255e-06 -3.52287e-06)
(5.01089 -1.52695e-06 -1.10954e-06)
(4.96543 -3.74328e-08 -6.06764e-08)
(4.99333 3.02958e-08 9.98718e-11)
(5.00217 -2.21774e-08 -3.60427e-08)
(5.00124 -9.99666e-09 -2.65661e-09)
(4.99977 1.15289e-09 1.28309e-09)
(4.99972 -2.75359e-09 -5.82852e-09)
(4.55741 1.00274e-05 -1.33874e-05)
(5.05722 8.80681e-06 -1.13677e-05)
(5.19649 5.22518e-06 -6.62671e-06)
(5.01087 1.71981e-06 -2.04964e-06)
(4.96541 7.7007e-08 -5.35743e-08)
(4.99331 -2.99621e-08 1.90114e-08)
(5.00215 2.35123e-08 -2.80153e-08)
(5.00122 1.41643e-08 -2.31563e-09)
(4.99975 -2.18267e-09 -6.76136e-09)
(4.9997 -7.4863e-10 -1.0245e-08)
(4.55746 1.51385e-05 -1.33934e-05)
(5.05736 1.25822e-05 -1.1356e-05)
(5.19669 7.29512e-06 -6.61168e-06)
(5.01109 2.31435e-06 -2.0424e-06)
(4.96563 1.01883e-07 -5.14696e-08)
(4.99353 -3.61149e-08 1.94726e-08)
(5.00237 3.59042e-08 -2.97452e-08)
(5.00144 2.5496e-08 -3.88374e-09)
(4.99997 -2.52502e-09 -6.07367e-09)
(4.99992 -3.64728e-09 -9.19204e-09)
(4.55746 8.76011e-06 -1.3379e-05)
(5.05736 7.00353e-06 -1.13851e-05)
(5.19669 4.01489e-06 -6.64358e-06)
(5.01109 1.30069e-06 -2.0581e-06)
(4.96563 1.33227e-07 -5.33102e-08)
(4.99353 -1.23203e-09 2.04345e-08)
(5.00237 1.9559e-08 -3.19254e-08)
(5.00144 2.34807e-08 -4.63452e-09)
(4.99997 -4.21317e-10 -5.00712e-09)
(4.99992 -7.12971e-09 -8.75345e-09)
(4.55746 5.66382e-06 -1.33944e-05)
(5.05735 4.95914e-06 -1.13491e-05)
(5.19669 2.94566e-06 -6.59738e-06)
(5.01109 1.05322e-06 -2.04021e-06)
(4.96563 1.63004e-07 -4.50086e-08)