/*--------------------------------*- C++ -*----------------------------------*\
| =========                 |                                                 |
| \\      /  F ield         | OpenFOAM: The Open Source CFD Toolbox           |
|  \\    /   O peration     | Version:  1.7.x                                 |
|   \\  /    A nd           | Web:      www.OpenFOAM.com                      |
|    \\/     M anipulation  |                                                 |
\*---------------------------------------------------------------------------*/
FoamFile
{
    version     2.0;
    format      ascii;
    class       surfaceScalarField;
    location    "0.3";
    object      phi;
}
// * * * * * * * * * * * * * * * * * * * * * * * * * * * * * * * * * * * * * //

dimensions      [0 3 -1 0 0 0 0];

internalField   nonuniform List<scalar> 
2700
(
0.0499985
7.86523e-07
7.00375e-07
0.049997
7.91979e-07
7.13326e-07
0.0499958
6.57642e-07
5.98232e-07
0.0499951
3.42618e-07
3.09043e-07
0.049995
7.31517e-08
6.38413e-08
0.049995
4.59612e-09
3.21572e-09
0.0499949
7.20818e-09
6.37841e-09
0.0499949
5.61103e-09
5.07942e-09
0.0499949
7.65384e-10
6.31569e-10
-3.88925e-10
-3.89243e-10
0.0499995
5.77627e-07
7.00526e-07
0.049999
6.11016e-07
7.13356e-07
0.0499985
4.99608e-07
5.97759e-07
0.0499983
2.68578e-07
3.08944e-07
0.0499982
6.46457e-08
6.40877e-08
0.0499982
6.23964e-09
3.33878e-09
0.0499982
6.40604e-09
6.5645e-09
0.0499982
5.35792e-09
5.2491e-09
0.0499982
6.44958e-10
6.38721e-10
-5.46457e-10
-3.93254e-10
0.0499995
3.87544e-07
7.0044e-07
0.049999
4.2412e-07
7.13204e-07
0.0499985
3.43122e-07
5.97835e-07
0.0499983
1.89335e-07
3.0888e-07
0.0499982
5.02347e-08
6.39481e-08
0.0499982
6.03914e-09
3.22788e-09
0.0499982
5.14456e-09
6.48226e-09
0.0499982
4.78719e-09
5.20787e-09
0.0499982
3.85145e-10
6.16147e-10
-7.29456e-10
-3.97399e-10
0.0499995
2.09052e-07
7.00429e-07
0.049999
2.34564e-07
7.13441e-07
0.0499985
1.88299e-07
5.98263e-07
0.0499983
1.0661e-07
3.09222e-07
0.0499982
3.07646e-08
6.40691e-08
0.0499982
3.77529e-09
3.23681e-09
0.0499982
3.29443e-09
6.47072e-09
0.0499982
3.76683e-09
5.24069e-09
0.0499982
1.23015e-11
6.49757e-10
-8.78763e-10
-4.19313e-10
0.0499995
3.68329e-08
7.0067e-07
0.0499989
4.47635e-08
7.1271e-07
0.0499985
3.41527e-08
5.97841e-07
0.0499983
2.2094e-08
3.08981e-07
0.0499982
8.97697e-09
6.38492e-08
0.0499982
7.50721e-10
3.16956e-09
0.0499982
1.21874e-09
6.43908e-09
0.0499982
2.48292e-09
5.20031e-09
0.0499982
-3.05228e-10
6.70549e-10
-9.16046e-10
-3.93751e-10
0.0499995
-1.33744e-07
7.00114e-07
0.0499989
-1.45501e-07
7.13422e-07
0.0499985
-1.21056e-07
5.98576e-07
0.0499983
-6.32209e-08
3.09317e-07
0.0499982
-1.32909e-08
6.39623e-08
0.0499982
-2.2924e-09
3.19816e-09
0.0499982
-9.47048e-10
6.42114e-09
0.0499982
9.49036e-10
5.17229e-09
0.0499982
-5.91178e-10
6.83496e-10
-8.44612e-10
-3.76031e-10
0.0499995
-3.09172e-07
7.00518e-07
0.049999
-3.34472e-07
7.1317e-07
0.0499985
-2.76176e-07
5.97957e-07
0.0499983
-1.471e-07
3.08943e-07
0.0499982
-3.37323e-08
6.39571e-08
0.0499982
-4.35914e-09
3.26203e-09
0.0499982
-3.01419e-09
6.36937e-09
0.0499982
-7.54399e-10
5.10058e-09
0.0499982
-7.94016e-10
6.80594e-10
-6.6968e-10
-3.61792e-10
0.0499995
-4.93195e-07
7.00497e-07
0.049999
-5.21954e-07
7.13374e-07
0.0499985
-4.33671e-07
5.97829e-07
0.0499983
-2.28516e-07
3.08956e-07
0.0499982
-5.01428e-08
6.42324e-08
0.0499982
-4.56491e-09
3.47828e-09
0.0499982
-4.75082e-09
6.3446e-09
0.0499982
-2.42696e-09
5.05836e-09
0.0499982
-8.42856e-10
7.4e-10
-4.2283e-10
-3.20487e-10
0.0499995
-6.93865e-07
7.00489e-07
0.049999
-7.04114e-07
7.13302e-07
0.0499985
-5.91335e-07
5.97797e-07
0.0499983
-3.04539e-07
3.08777e-07
0.0499982
-6.18066e-08
6.4158e-08
0.0499982
-3.3365e-09
3.47246e-09
0.0499982
-6.18571e-09
6.28799e-09
0.0499982
-4.04697e-09
4.96313e-09
0.0499982
-8.08207e-10
7.16092e-10
-1.03583e-10
-3.04915e-10
0.0499986
7.00561e-07
0.0499972
7.13246e-07
0.049996
5.9782e-07
0.0499954
3.08704e-07
0.0499953
6.42016e-08
0.0499953
3.57779e-09
0.0499952
6.22983e-09
0.0499952
4.88252e-09
0.0499952
7.48217e-10
-2.6393e-10
0.0499994
7.86677e-07
5.06721e-07
0.0499988
7.92015e-07
5.402e-07
0.0499983
6.57172e-07
4.46595e-07
0.049998
3.42517e-07
2.37341e-07
0.0499979
7.34002e-08
5.44895e-08
0.0499979
4.72318e-09
4.14559e-09
0.0499979
7.39349e-09
5.41829e-09
0.0499979
5.78057e-09
4.78745e-09
0.0499979
7.7087e-10
4.78736e-10
-3.92942e-10
-5.61162e-10
0.0500004
5.77695e-07
5.06782e-07
0.0500008
6.11063e-07
5.40252e-07
0.0500011
4.99531e-07
4.4653e-07
0.0500012
2.68693e-07
2.37463e-07
0.0500012
6.4831e-08
5.46831e-08
0.0500012
6.27862e-09
4.20056e-09
0.0500012
6.49097e-09
5.50538e-09
0.0500012
5.47978e-09
4.90995e-09
0.0500012
6.58382e-10
4.93021e-10
-5.72572e-10
-5.87117e-10
0.0500004
3.87581e-07
5.06709e-07
0.0500007
4.23931e-07
5.40051e-07
0.0500011
3.4308e-07
4.46871e-07
0.0500012
1.89517e-07
2.37576e-07
0.0500012
5.03312e-08
5.4428e-08
0.0500012
6.00427e-09
3.97022e-09
0.0500012
5.1036e-09
5.34831e-09
0.0500012
4.84444e-09
4.77868e-09
0.0500012
4.30324e-10
4.69967e-10
-7.45734e-10
-5.7469e-10
0.0500004
2.08908e-07
5.06573e-07
0.0500007
2.34738e-07
5.4045e-07
0.050001
1.8857e-07
4.47523e-07
0.0500012
1.06783e-07
2.3788e-07
0.0500012
3.07508e-08
5.44412e-08
0.0500012
3.70157e-09
4.06593e-09
0.0500012
3.26316e-09
5.3422e-09
0.0500012
3.82117e-09
4.77151e-09
0.0500012
7.47223e-11
5.10998e-10
-8.80975e-10
-5.72627e-10
0.0500004
3.6823e-08
5.06757e-07
0.0500007
4.47922e-08
5.3965e-07
0.050001
3.40143e-08
4.47164e-07
0.0500012
2.20431e-08
2.37404e-07
0.0500012
8.94308e-09
5.40523e-08
0.0500012
7.16764e-10
4.03514e-09
0.0500012
1.21592e-09
5.25531e-09
0.0500012
2.51293e-09
4.63456e-09
0.0500012
-2.99483e-10
5.31033e-10
-9.18187e-10
-5.19017e-10
0.0500004
-1.34003e-07
5.06408e-07
0.0500007
-1.45161e-07
5.40393e-07
0.050001
-1.21162e-07
4.47783e-07
0.0500012
-6.32528e-08
2.37837e-07
0.0500012
-1.31323e-08
5.4362e-08
0.0500012
-2.20659e-09
4.22449e-09
0.0500012
-9.77192e-10
5.14016e-09
0.0500012
9.42135e-10
4.4682e-09
0.0500012
-5.7684e-10
5.77819e-10
-8.31205e-10
-4.50587e-10
0.0500004
-3.09118e-07
5.06753e-07
0.0500007
-3.34368e-07
5.40013e-07
0.050001
-2.7643e-07
4.46891e-07
0.0500012
-1.47118e-07
2.37114e-07
0.0500012
-3.34607e-08
5.43915e-08
0.0500012
-4.14347e-09
4.50728e-09
0.0500012
-3.031e-09
5.04337e-09
0.0500012
-8.03676e-10
4.31952e-09
0.0500012
-7.62831e-10
6.4353e-10
-6.42336e-10
-3.968e-10
0.0500004
-4.93401e-07
5.06629e-07
0.0500007
-5.21808e-07
5.40257e-07
0.050001
-4.33255e-07
4.47046e-07
0.0500012
-2.28273e-07
2.37249e-07
0.0500012
-5.00158e-08
5.4708e-08
0.0500012
-4.40876e-09
4.77125e-09
0.0500012
-4.76145e-09
4.93259e-09
0.0500012
-2.51511e-09
4.21138e-09
0.0500012
-8.25293e-10
7.04031e-10
-3.78129e-10
-3.48281e-10
0.0500004
-6.9395e-07
5.06688e-07
0.0500007
-7.04002e-07
5.40058e-07
0.0500011
-5.90951e-07
4.46828e-07
0.0500012
-3.04246e-07
2.37176e-07
0.0500012
-6.16579e-08
5.48832e-08
0.0500012
-3.24709e-09
4.85398e-09
0.0500012
-6.26935e-09
4.7976e-09
0.0500012
-4.16456e-09
4.06205e-09
0.0500012
-8.04005e-10
7.13851e-10
-7.33312e-11
-3.22076e-10
0.0499995
5.06605e-07
0.049999
5.40118e-07
0.0499985
4.47179e-07
0.0499983
2.37292e-07
0.0499982
5.49556e-08
0.0499982
4.97286e-09
0.0499982
4.81035e-09
0.0499982
4.04061e-09
0.0499982
7.45462e-10
-3.00761e-10
0.0499994
7.86586e-07
3.29623e-07
0.0499988
7.9186e-07
3.61761e-07
0.0499983
6.57253e-07
2.96531e-07
0.049998
3.42459e-07
1.61005e-07
0.0499979
7.32582e-08
3.99198e-08
0.0499979
4.6109e-09
3.49282e-09
0.0499979
7.31253e-09
4.05422e-09
0.0499979
5.73976e-09
4.20182e-09
0.0499979
7.48345e-10
1.99265e-10
-3.97197e-10
-7.53952e-10
0.0500004
5.77613e-07
3.29649e-07
0.0500007
6.10858e-07
3.61586e-07
0.0500011
4.99877e-07
2.96524e-07
0.0500012
2.68812e-07
1.61202e-07
0.0500012
6.45858e-08
4.00191e-08
0.0500012
6.07723e-09
3.46411e-09
0.0500012
6.33715e-09
4.01572e-09
0.0500012
5.35003e-09
4.25922e-09
0.0500012
6.36504e-10
2.4222e-10
-5.60089e-10
-7.69997e-10
0.0500004
3.87488e-07
3.2953e-07
0.0500007
4.23811e-07
3.6146e-07
0.050001
3.43499e-07
2.96972e-07
0.0500012
1.89441e-07
1.61143e-07
0.0500012
4.99712e-08
3.96669e-08
0.0500012
5.88701e-09
3.35336e-09
0.0500012
5.02147e-09
3.92921e-09
0.0500012
4.68563e-09
4.09895e-09
0.0500012
4.20344e-10
2.32723e-10
-7.14729e-10
-7.39308e-10
0.0500004
2.08715e-07
3.29425e-07
0.0500007
2.35098e-07
3.61773e-07
0.050001
1.89048e-07
2.97213e-07
0.0500012
1.0682e-07
1.61162e-07
0.0500012
3.06289e-08
3.96339e-08
0.0500012
3.7521e-09
3.46299e-09
0.0500012
3.22905e-09
3.85923e-09
0.0500012
3.63816e-09
4.03701e-09
0.0500012
8.84504e-11
2.76711e-10
-8.35732e-10
-7.0181e-10
0.0500003
3.71496e-08
3.29324e-07
0.0500007
4.47089e-08
3.61847e-07
0.050001
3.34544e-08
2.97267e-07
0.0500012
2.16666e-08
1.60974e-07
0.0500012
8.90507e-09
3.96298e-08
0.0500012
8.0212e-10
3.63351e-09
0.0500012
1.09473e-09
3.72539e-09
0.0500012
2.30212e-09
3.82533e-09
0.0500012
-2.28229e-10
3.3454e-10
-8.42608e-10
-6.31875e-10
0.0500003
-1.33886e-07
3.29433e-07
0.0500007
-1.44943e-07
3.61719e-07
0.050001
-1.21213e-07
2.96925e-07
0.0500012
-6.35038e-08
1.60745e-07
0.0500012
-1.30541e-08
3.98692e-08
0.0500012
-1.93269e-09
4.0061e-09
0.0500012
-1.05437e-09
3.56209e-09
0.0500012
7.48727e-10
3.5796e-09
0.0500012
-5.14821e-10
4.32248e-10
-7.65185e-10
-5.46217e-10
0.0500004
-3.08756e-07
3.29557e-07
0.0500007
-3.34545e-07
3.61619e-07
0.050001
-2.77105e-07
2.96831e-07
0.0500012
-1.47626e-07
1.60559e-07
0.0500012
-3.34529e-08
4.01532e-08
0.0500012
-4.01153e-09
4.40146e-09
0.0500012
-3.16379e-09
3.44067e-09
0.0500012
-9.45603e-10
3.38573e-09
0.0500012
-7.19897e-10
5.01554e-10
-6.06526e-10
-4.68382e-10
0.0500004
-4.93046e-07
3.29454e-07
0.0500007
-5.22102e-07
3.61709e-07
0.050001
-4.34052e-07
2.97075e-07
0.0500012
-2.28841e-07
1.60617e-07
0.0500012
-5.00976e-08
4.03512e-08
0.0500012
-4.35126e-09
4.59354e-09
0.0500012
-4.8927e-09
3.22328e-09
0.0500012
-2.62117e-09
3.22176e-09
0.0500012
-8.03416e-10
5.67471e-10
-3.65147e-10
-4.18667e-10
0.0500004
-6.93681e-07
3.29585e-07
0.0500007
-7.04398e-07
3.61656e-07
0.050001
-5.91634e-07
2.96862e-07
0.0500012
-3.04833e-07
1.60234e-07
0.0500012
-6.18897e-08
4.03144e-08
0.0500012
-3.21549e-09
4.66656e-09
0.0500012
-6.27208e-09
3.07177e-09
0.0500012
-4.17951e-09
3.05047e-09
0.0500012
-7.7332e-10
6.07129e-10
-6.26381e-11
-3.58018e-10
0.0499995
3.29692e-07
0.049999
3.61667e-07
0.0499985
2.96652e-07
0.0499983
1.60029e-07
0.0499982
4.03523e-08
0.0499982
4.77702e-09
0.0499982
3.03123e-09
0.0499982
3.03107e-09
0.0499982
6.54268e-10
-3.51167e-10
0.0499994
7.86588e-07
1.62338e-07
0.0499988
7.92124e-07
1.80912e-07
0.0499983
6.57675e-07
1.48148e-07
0.049998
3.42779e-07
8.16524e-08
0.0499979
7.33764e-08
2.09066e-08
0.0499979
4.61677e-09
1.05812e-09
0.0499979
7.29951e-09
2.19141e-09
0.0499979
5.77175e-09
3.20031e-09
0.0499979
7.79294e-10
-1.7722e-10
-4.19027e-10
-9.08977e-10
0.0500004
5.77492e-07
1.62187e-07
0.0500007
6.11281e-07
1.81141e-07
0.050001
5.00528e-07
1.48464e-07
0.0500012
2.69112e-07
8.1809e-08
0.0500012
6.45908e-08
2.08937e-08
0.0500012
6.14829e-09
9.9969e-10
0.0500012
6.32767e-09
2.16216e-09
0.0500012
5.34139e-09
3.25579e-09
0.0500012
6.75213e-10
-1.2226e-10
-5.58274e-10
-9.11378e-10
0.0500004
3.87356e-07
1.61979e-07
0.0500007
4.24099e-07
1.81535e-07
0.050001
3.43759e-07
1.48988e-07
0.0500012
1.89502e-07
8.18575e-08
0.0500012
4.99519e-08
2.07709e-08
0.0500012
6.00396e-09
1.03757e-09
0.0500012
4.94846e-09
2.12219e-09
0.0500012
4.62141e-09
3.07086e-09
0.0500012
4.65422e-10
-1.10201e-10
-6.77059e-10
-8.65697e-10
0.0500003
2.08642e-07
1.61846e-07
0.0500007
2.35284e-07
1.81647e-07
0.050001
1.89011e-07
1.4902e-07
0.0500012
1.06541e-07
8.16084e-08
0.0500012
3.05429e-08
2.07018e-08
0.0500012
3.96122e-09
1.23138e-09
0.0500012
3.07106e-09
1.96555e-09
0.0500012
3.47929e-09
2.91373e-09
0.0500012
1.46936e-10
-4.38433e-11
-7.53673e-10
-7.84182e-10
0.0500003
3.70214e-08
1.62005e-07
0.0500007
4.51496e-08
1.81465e-07
0.050001
3.36257e-08
1.48409e-07
0.0500012
2.16455e-08
8.1498e-08
0.0500012
9.12175e-09
2.11773e-08
0.0500012
1.14075e-09
1.61473e-09
0.0500012
9.05522e-10
1.74249e-09
0.0500012
2.09243e-09
2.68369e-09
0.0500012
-1.75056e-10
7.28098e-11
-7.67716e-10
-7.07881e-10
0.0500003
-1.3378e-07
1.62321e-07
0.0500007
-1.45019e-07
1.8115e-07
0.050001
-1.21511e-07
1.47911e-07
0.0500012
-6.36074e-08
8.10514e-08
0.0500012
-1.26983e-08
2.13542e-08
0.0500012
-1.57004e-09
2.0539e-09
0.0500012
-1.25614e-09
1.57163e-09
0.0500012
5.28687e-10
2.44682e-09
0.0500012
-4.41612e-10
1.98727e-10
-7.00683e-10
-6.11433e-10
0.0500003
-3.09002e-07
1.62243e-07
0.0500007
-3.34619e-07
1.81553e-07
0.050001
-2.76758e-07
1.48277e-07
0.0500012
-1.47345e-07
8.09029e-08
0.0500012
-3.3042e-08
2.14658e-08
0.0500012
-3.72685e-09
2.30918e-09
0.0500012
-3.34567e-09
1.35735e-09
0.0500012
-1.14701e-09
2.18485e-09
0.0500012
-6.33371e-10
2.40278e-10
-5.36885e-10
-5.25289e-10
0.0500004
-4.93613e-07
1.62373e-07
0.0500007
-5.21659e-07
1.81062e-07
0.050001
-4.329e-07
1.47848e-07
0.0500012
-2.28173e-07
8.05276e-08
0.0500012
-4.96033e-08
2.1641e-08
0.0500012
-4.08143e-09
2.57292e-09
0.0500012
-4.99217e-09
1.12265e-09
0.0500012
-2.75911e-09
2.00651e-09
0.0500012
-7.40229e-10
3.50615e-10
-3.16487e-10
-4.62943e-10
0.0500004
-6.94067e-07
1.6193e-07
0.0500007
-7.03775e-07
1.81257e-07
0.050001
-5.90547e-07
1.4856e-07
0.0500012
-3.04258e-07
8.06975e-08
0.0500012
-6.15607e-08
2.17194e-08
0.0500012
-3.1203e-09
2.68018e-09
0.0500012
-6.34022e-09
9.96276e-10
0.0500012
-4.2573e-09
1.8372e-09
0.0500012
-7.63858e-10
4.14404e-10
-4.59816e-11
-3.946e-10
0.0499995
1.61997e-07
0.0499989
1.8154e-07
0.0499985
1.48824e-07
0.0499983
8.07828e-08
0.0499982
2.19259e-08
0.0499982
2.89449e-09
0.0499982
1.00276e-09
0.0499982
1.82913e-09
0.0499982
4.67415e-10
-3.83864e-10
0.0499994
7.86697e-07
2.07935e-11
0.0499988
7.914e-07
-2.84151e-11
0.0499983
6.57416e-07
3.49226e-10
0.049998
3.42612e-07
7.8129e-10
0.0499979
7.31813e-08
4.45e-11
0.0499979
4.55557e-09
-1.9006e-09
0.0499979
7.26728e-09
1.77434e-10
0.0499979
5.73151e-09
1.96312e-09
0.0499979
8.04397e-10
-4.88062e-10
-3.93681e-10
-9.48466e-10
0.0500004
5.77553e-07
-1.35463e-10
0.0500007
6.10498e-07
9.19118e-11
0.050001
5.00296e-07
4.71846e-10
0.0500012
2.68678e-07
7.91607e-10
0.0500012
6.42252e-08
3.56402e-11
0.0500012
6.13617e-09
-1.91714e-09
0.0500012
6.24363e-09
1.72052e-10
0.0500012
5.20549e-09
1.9941e-09
0.0500012
6.92595e-10
-4.84609e-10
-5.0461e-10
-9.50972e-10
0.0500004
3.87313e-07
4.65914e-12
0.0500007
4.24151e-07
1.30243e-10
0.050001
3.43768e-07
1.16824e-10
0.0500012
1.89251e-07
4.95393e-10
0.0500012
4.99361e-08
2.13072e-11
0.0500012
6.19453e-09
-1.85389e-09
0.0500012
4.81348e-09
5.11983e-11
0.0500012
4.41026e-09
1.78138e-09
0.0500012
5.09999e-10
-4.13192e-10
-6.0744e-10
-8.75208e-10
0.0500003
2.08787e-07
-1.07328e-11
0.0500007
2.35141e-07
2.99952e-10
0.050001
1.88391e-07
2.32884e-10
0.0500012
1.06393e-07
4.45112e-10
0.0500012
3.10263e-08
2.32186e-10
0.0500012
4.34563e-09
-1.51818e-09
0.0500012
2.8473e-09
-1.41816e-10
0.0500012
3.2498e-09
1.5736e-09
0.0500012
2.52077e-10
-3.55861e-10
-6.774e-10
-8.00382e-10
0.0500003
3.69397e-08
5.20769e-11
0.0500007
4.49702e-08
-1.21126e-10
0.050001
3.3566e-08
-3.34096e-10
0.0500012
2.15014e-08
1.36621e-10
0.0500012
9.54983e-09
6.29143e-10
0.0500012
1.68625e-09
-9.7885e-10
0.0500012
7.59774e-10
-2.93798e-10
0.0500012
1.86164e-09
1.34046e-09
0.0500012
-3.67963e-11
-2.21746e-10
-6.82295e-10
-7.14949e-10
0.0500003
-1.33782e-07
8.09983e-11
0.0500007
-1.45309e-07
-2.63248e-11
0.050001
-1.21305e-07
6.3008e-12
0.0500012
-6.38789e-08
-1.4216e-10
0.0500012
-1.26287e-08
5.77092e-10
0.0500012
-1.23249e-09
-7.20212e-10
0.0500012
-1.40684e-09
-5.18575e-10
0.0500012
3.01955e-10
1.0656e-09
0.0500012
-3.21243e-10
-1.17096e-10
-6.04698e-10
-5.99187e-10
0.0500003
-3.08756e-07
-1.69049e-10
0.0500007
-3.34388e-07
2.4516e-10
0.050001
-2.76731e-07
2.70231e-10
0.0500012
-1.47801e-07
-1.77258e-10
0.0500012
-3.31721e-08
1.0016e-09
0.0500012
-3.62335e-09
-3.88689e-10
0.0500012
-3.57117e-09
-8.00995e-10
0.0500012
-1.37371e-09
8.20551e-10
0.0500012
-5.87566e-10
-1.34111e-11
-4.66782e-10
-5.36304e-10
0.0500003
-4.93032e-07
2.32991e-11
0.0500007
-5.2222e-07
5.58888e-11
0.050001
-4.33854e-07
6.95168e-11
0.0500012
-2.29066e-07
-4.97266e-10
0.0500012
-4.99936e-08
1.06028e-09
0.0500012
-4.11236e-09
-1.53414e-10
0.0500012
-5.16939e-09
-9.88183e-10
0.0500012
-2.91157e-09
6.62241e-10
0.0500012
-6.78716e-10
9.7288e-11
-2.66712e-10
-4.50186e-10
0.0500004
-6.93734e-07
-7.35325e-11
0.0500007
-7.04565e-07
2.20083e-10
0.050001
-5.91801e-07
9.70166e-11
0.0500012
-3.05049e-07
-7.73949e-10
0.0500012
-6.17253e-08
1.14304e-09
0.0500012
-3.02167e-09
2.98853e-11
0.0500012
-6.38449e-09
-1.13461e-09
0.0500012
-4.29171e-09
5.18966e-10
0.0500012
-7.05328e-10
1.94235e-10
-4.20595e-11
-4.11449e-10
0.0499995
-6.6111e-11
0.0499989
2.28649e-10
0.0499985
8.11269e-11
0.0499983
-9.61241e-10
0.0499982
1.04734e-09
0.0499982
1.25281e-10
0.0499982
-1.1413e-09
0.0499982
4.6604e-10
0.0499982
2.34659e-10
-3.65967e-10
0.0499994
7.86347e-07
-1.61994e-07
0.0499988
7.92131e-07
-1.8139e-07
0.0499983
6.57845e-07
-1.48112e-07
0.049998
3.42837e-07
-8.05109e-08
0.0499979
7.3255e-08
-2.0857e-08
0.0499979
4.58072e-09
-4.66788e-09
0.0499979
7.25081e-09
-1.86247e-09
0.0499979
5.70381e-09
4.99874e-10
0.0499979
8.1487e-10
-7.53535e-10
-3.75951e-10
-8.75763e-10
0.0500004
5.77402e-07
-1.62318e-07
0.0500007
6.11305e-07
-1.80946e-07
0.050001
5.00704e-07
-1.48157e-07
0.0500012
2.69042e-07
-8.05568e-08
0.0500012
6.45089e-08
-2.07047e-08
0.0500012
6.33576e-09
-4.58082e-09
0.0500012
6.12467e-09
-1.892e-09
0.0500012
5.03959e-09
4.92835e-10
0.0500012
7.38881e-10
-7.39167e-10
-4.3628e-10
-8.6239e-10
0.0500004
3.8737e-07
-1.62297e-07
0.0500007
4.24247e-07
-1.80636e-07
0.050001
3.43562e-07
-1.48112e-07
0.0500012
1.89097e-07
-8.07588e-08
0.0500012
5.01956e-08
-2.06108e-08
0.0500012
6.57497e-09
-4.31662e-09
0.0500012
4.65018e-09
-1.97364e-09
0.0500012
4.16471e-09
2.99718e-10
0.0500012
6.1023e-10
-6.77481e-10
-5.2175e-10
-7.95937e-10
0.0500003
2.09078e-07
-1.62194e-07
0.0500007
2.34837e-07
-1.8079e-07
0.050001
1.88207e-07
-1.48418e-07
0.0500012
1.06099e-07
-8.08875e-08
0.0500012
3.12452e-08
-2.02644e-08
0.0500012
4.78785e-09
-3.94519e-09
0.0500012
2.66823e-09
-2.17489e-09
0.0500012
3.0129e-09
8.10659e-11
0.0500012
3.81352e-10
-6.01826e-10
-5.80824e-10
-7.31538e-10
0.0500003
3.71478e-08
-1.62102e-07
0.0500007
4.46544e-08
-1.81325e-07
0.050001
3.33689e-08
-1.48194e-07
0.0500012
2.09316e-08
-8.10015e-08
0.0500012
9.4606e-09
-2.01478e-08
0.0500012
1.93193e-09
-3.60794e-09
0.0500012
5.09333e-10
-2.32767e-09
0.0500012
1.58545e-09
-1.49748e-10
0.0500012
5.28072e-11
-4.81326e-10
-5.6702e-10
-6.35899e-10
0.0500003
-1.33736e-07
-1.62054e-07
0.0500007
-1.45464e-07
-1.81306e-07
0.050001
-1.21302e-07
-1.48377e-07
0.0500012
-6.40749e-08
-8.14856e-08
0.0500012
-1.25318e-08
-2.01377e-08
0.0500012
-1.05716e-09
-3.45394e-09
0.0500012
-1.71909e-09
-2.62391e-09
0.0500012
3.25406e-11
-4.23621e-10
0.0500012
-2.5657e-10
-4.1153e-10
-5.19204e-10
-5.5015e-10
0.0500003
-3.08933e-07
-1.621e-07
0.0500007
-3.34346e-07
-1.81043e-07
0.050001
-2.76845e-07
-1.48354e-07
0.0500012
-1.47931e-07
-8.16735e-08
0.0500012
-3.27258e-08
-1.97197e-08
0.0500012
-3.22456e-09
-3.05745e-09
0.0500012
-3.75536e-09
-2.89932e-09
0.0500012
-1.55744e-09
-6.06216e-10
0.0500012
-4.4969e-10
-2.53756e-10
-3.97692e-10
-4.94804e-10
0.0500003
-4.93368e-07
-1.61996e-07
0.0500007
-5.21879e-07
-1.81042e-07
0.050001
-4.33533e-07
-1.48475e-07
0.0500012
-2.28837e-07
-8.20922e-08
0.0500012
-4.93784e-08
-1.98628e-08
0.0500012
-3.66813e-09
-2.84183e-09
0.0500012
-5.23228e-09
-2.97913e-09
0.0500012
-3.02013e-09
-7.35766e-10
0.0500012
-5.54144e-10
-1.43686e-10
-2.10682e-10
-3.9193e-10
0.0500004
-6.94074e-07
-1.62499e-07
0.0500007
-7.04333e-07
-1.80817e-07
0.050001
-5.91073e-07
-1.47703e-07
0.0500012
-3.04631e-07
-8.19934e-08
0.0500012
-6.15041e-08
-1.98887e-08
0.0500012
-2.90732e-09
-2.688e-09
0.0500012
-6.39424e-09
-3.00835e-09
0.0500012
-4.35536e-09
-8.38313e-10
0.0500012
-6.65244e-10
-6.71781e-11
-4.60452e-13
-3.76072e-10
0.0499995
-1.62525e-07
0.0499989
-1.8117e-07
0.0499985
-1.47784e-07
0.0499983
-8.19748e-08
0.0499982
-1.98556e-08
0.0499982
-2.56653e-09
0.0499982
-3.03561e-09
0.0499982
-9.31303e-10
0.0499982
-5.10727e-11
-3.29484e-10
0.0499994
7.86718e-07
-3.29665e-07
0.0499988
7.91789e-07
-3.61343e-07
0.0499983
6.57324e-07
-2.96525e-07
0.049998
3.42519e-07
-1.60234e-07
0.0499979
7.32763e-08
-3.96715e-08
0.0499979
4.64983e-09
-6.27933e-09
0.0499979
7.19793e-09
-3.74991e-09
0.0499979
5.63217e-09
-1.11126e-09
0.0499979
8.11655e-10
-9.24379e-10
-3.61745e-10
-6.9585e-10
0.0500004
5.77724e-07
-3.29637e-07
0.0500007
6.10837e-07
-3.61221e-07
0.050001
4.99852e-07
-2.9675e-07
0.0500012
2.68339e-07
-1.60248e-07
0.0500012
6.4547e-08
-3.93921e-08
0.0500012
6.60495e-09
-6.05371e-09
0.0500012
6.02612e-09
-3.76303e-09
0.0500012
4.89091e-09
-1.16047e-09
0.0500012
8.04613e-10
-8.92902e-10
-3.82403e-10
-6.68682e-10
0.0500004
3.87499e-07
-3.29305e-07
0.0500007
4.24086e-07
-3.61367e-07
0.050001
3.43397e-07
-2.97377e-07
0.0500012
1.88882e-07
-1.60725e-07
0.0500012
5.04723e-08
-3.93802e-08
0.0500012
6.95686e-09
-5.94004e-09
0.0500012
4.52284e-09
-3.902e-09
0.0500012
3.97058e-09
-1.30156e-09
0.0500012
6.81072e-10
-8.50182e-10
-4.4397e-10
-6.32625e-10
0.0500003
2.08889e-07
-3.29519e-07
0.0500007
2.35398e-07
-3.61519e-07
0.050001
1.88489e-07
-2.97095e-07
0.0500012
1.05902e-07
-1.60497e-07
0.0500012
3.13226e-08
-3.89683e-08
0.0500012
5.03584e-09
-5.64353e-09
0.0500012
2.45039e-09
-4.08108e-09
0.0500012
2.75255e-09
-1.50323e-09
0.0500012
4.248e-10
-7.62586e-10
-4.9497e-10
-5.63025e-10
0.0500003
3.67833e-08
-3.2934e-07
0.0500007
4.49323e-08
-3.61163e-07
0.050001
3.39474e-08
-2.96938e-07
0.0500012
2.1251e-08
-1.6089e-07
0.0500012
9.94623e-09
-3.9098e-08
0.0500012
2.29396e-09
-5.56788e-09
0.0500012
2.24812e-10
-4.30691e-09
0.0500012
1.33973e-09
-1.73022e-09
0.0500012
1.62542e-10
-7.17076e-10
-5.03638e-10
-4.92602e-10
0.0500003
-1.33834e-07
-3.29403e-07
0.0500007
-1.4515e-07
-3.61366e-07
0.050001
-1.21251e-07
-2.97282e-07
0.0500012
-6.42953e-08
-1.61106e-07
0.0500012
-1.21509e-08
-3.8666e-08
0.0500012
-6.47404e-10
-5.16647e-09
0.0500012
-1.98913e-09
-4.48821e-09
0.0500012
-1.6653e-10
-1.91271e-09
0.0500012
-9.07401e-11
-5.80797e-10
-4.63306e-10
-4.24197e-10
0.0500003
-3.09056e-07
-3.29603e-07
0.0500007
-3.34475e-07
-3.61378e-07
0.050001
-2.76373e-07
-2.96691e-07
0.0500012
-1.48081e-07
-1.61229e-07
0.0500012
-3.28528e-08
-3.88011e-08
0.0500012
-3.05896e-09
-4.96309e-09
0.0500012
-3.88525e-09
-4.60952e-09
0.0500012
-1.67801e-09
-2.02913e-09
0.0500012
-3.14474e-10
-4.39141e-10
-3.29002e-10
-3.54258e-10
0.0500004
-4.93239e-07
-3.29574e-07
0.0500007
-5.21979e-07
-3.61271e-07
0.050001
-4.33368e-07
-2.9687e-07
0.0500012
-2.29229e-07
-1.61525e-07
0.0500012
-4.98495e-08
-3.87261e-08
0.0500012
-3.70005e-09
-4.71183e-09
0.0500012
-5.32473e-09
-4.66931e-09
0.0500012
-3.11759e-09
-2.16372e-09
0.0500012
-5.06066e-10
-3.66903e-10
-1.70588e-10
-2.64706e-10
0.0500004
-6.93865e-07
-3.29855e-07
0.0500007
-7.03927e-07
-3.61054e-07
0.050001
-5.91143e-07
-2.96548e-07
0.0500012
-3.04923e-07
-1.61694e-07
0.0500012
-6.16794e-08
-3.89014e-08
0.0500012
-2.87272e-09
-4.68524e-09
0.0500012
-6.43423e-09
-4.76384e-09
0.0500012
-4.44623e-09
-2.24702e-09
0.0500012
-6.51139e-10
-3.20153e-10
2.02178e-11
-2.78483e-10
0.0499995
-3.29763e-07
0.0499989
-3.61107e-07
0.0499985
-2.96629e-07
0.0499983
-1.61589e-07
0.0499982
-3.88138e-08
0.0499982
-4.51871e-09
0.0499982
-4.76505e-09
0.0499982
-2.33432e-09
0.0499982
-2.89694e-10
-2.28101e-10
0.0499994
7.86664e-07
-5.06531e-07
0.0499988
7.92042e-07
-5.39829e-07
0.0499983
6.57227e-07
-4.47276e-07
0.049998
3.42532e-07
-2.37345e-07
0.0499979
7.35373e-08
-5.42203e-08
0.0499979
4.86267e-09
-5.92936e-09
0.0499979
7.17405e-09
-5.26138e-09
0.0499979
5.58892e-09
-2.67523e-09
0.0499979
8.71724e-10
-9.34587e-10
-3.20057e-10
-4.41771e-10
0.0500004
5.77559e-07
-5.0675e-07
0.0500007
6.11125e-07
-5.39693e-07
0.0500011
5.00059e-07
-4.46854e-07
0.0500012
2.68497e-07
-2.37107e-07
0.0500012
6.48541e-08
-5.40903e-08
0.0500012
6.87067e-09
-5.76186e-09
0.0500012
5.91848e-09
-5.26827e-09
0.0500012
4.78123e-09
-2.76295e-09
0.0500012
8.65918e-10
-9.16199e-10
-3.34159e-10
-3.97031e-10
0.0500004
3.87375e-07
-5.06391e-07
0.0500007
4.24125e-07
-5.39924e-07
0.050001
3.43705e-07
-4.47645e-07
0.0500012
1.89018e-07
-2.37693e-07
0.0500012
5.06887e-08
-5.42035e-08
0.0500012
7.15737e-09
-5.73319e-09
0.0500012
4.31035e-09
-5.40709e-09
0.0500012
3.80559e-09
-2.86871e-09
0.0500012
7.48316e-10
-8.94972e-10
-3.93747e-10
-3.83801e-10
0.0500004
2.09086e-07
-5.06959e-07
0.0500007
2.34773e-07
-5.39572e-07
0.050001
1.88026e-07
-4.46497e-07
0.0500012
1.05502e-07
-2.36948e-07
0.0500012
3.14801e-08
-5.3634e-08
0.0500012
5.29178e-09
-5.42172e-09
0.0500012
2.21109e-09
-5.49339e-09
0.0500012
2.57088e-09
-3.00522e-09
0.0500012
5.36855e-10
-8.31843e-10
-4.3249e-10
-3.35271e-10
0.0500003
3.68663e-08
-5.06346e-07
0.0500007
4.4882e-08
-5.4e-07
0.050001
3.40825e-08
-4.47671e-07
0.0500012
2.10298e-08
-2.38094e-07
0.0500012
1.00242e-08
-5.41471e-08
0.0500012
2.51953e-09
-5.52347e-09
0.0500012
3.24628e-11
-5.6768e-09
0.0500012
1.17843e-09
-3.1584e-09
0.0500012
2.75633e-10
-7.70194e-10
-4.18004e-10
-2.85214e-10
0.0500003
-1.33705e-07
-5.06756e-07
0.0500007
-1.4513e-07
-5.39934e-07
0.050001
-1.21358e-07
-4.46949e-07
0.0500012
-6.47361e-08
-2.37508e-07
0.0500012
-1.2303e-08
-5.3406e-08
0.0500012
-4.71603e-10
-5.02488e-09
0.0500012
-2.0699e-09
-5.75045e-09
0.0500012
-2.92629e-10
-3.26589e-09
0.0500012
1.67206e-11
-6.48629e-10
-3.60605e-10
-2.30868e-10
0.0500004
-3.09063e-07
-5.06639e-07
0.0500007
-3.34348e-07
-5.39869e-07
0.050001
-2.76472e-07
-4.46898e-07
0.0500012
-1.48328e-07
-2.38067e-07
0.0500012
-3.27826e-08
-5.39653e-08
0.0500012
-2.79791e-09
-5.04531e-09
0.0500012
-3.93227e-09
-5.83233e-09
0.0500012
-1.81231e-09
-3.36226e-09
0.0500012
-2.36139e-10
-5.92559e-10
-2.38143e-10
-1.89372e-10
0.0500004
-4.93386e-07
-5.06753e-07
0.0500007
-5.21858e-07
-5.39795e-07
0.050001
-4.33254e-07
-4.46846e-07
0.0500012
-2.29216e-07
-2.38048e-07
0.0500012
-4.97243e-08
-5.37997e-08
0.0500012
-3.46706e-09
-4.81788e-09
0.0500012
-5.33562e-09
-5.84927e-09
0.0500012
-3.24127e-09
-3.48516e-09
0.0500012
-4.67298e-10
-5.5779e-10
-9.56902e-11
-1.16579e-10
0.0500004
-6.93927e-07
-5.06857e-07
0.0500007
-7.04332e-07
-5.39613e-07
0.050001
-5.9133e-07
-4.46813e-07
0.0500012
-3.04829e-07
-2.38161e-07
0.0500012
-6.15183e-08
-5.38153e-08
0.0500012
-2.72959e-09
-4.73138e-09
0.0500012
-6.45481e-09
-5.91374e-09
0.0500012
-4.51785e-09
-3.50575e-09
0.0500012
-6.21442e-10
-5.11334e-10
5.43144e-11
-1.55554e-10
0.0499995
-5.06781e-07
0.049999
-5.39814e-07
0.0499985
-4.46808e-07
0.0499983
-2.38061e-07
0.0499982
-5.39321e-08
0.0499982
-4.7017e-09
0.0499982
-5.90008e-09
0.0499982
-3.56227e-09
0.0499982
-4.87659e-10
-1.09737e-10
0.0499994
7.86657e-07
-7.00452e-07
0.0499988
7.91986e-07
-7.13049e-07
0.0499983
6.57197e-07
-5.98153e-07
0.049998
3.42351e-07
-3.08969e-07
0.0499979
7.34777e-08
-6.38788e-08
0.0499979
4.85535e-09
-4.02695e-09
0.0499979
7.11365e-09
-6.45326e-09
0.0499979
5.49394e-09
-4.17351e-09
0.0499979
8.47246e-10
-8.55008e-10
-3.04578e-10
-1.13571e-10
0.0500004
5.7763e-07
-7.00549e-07
0.0500008
6.10932e-07
-7.12946e-07
0.0500011
4.99814e-07
-5.97756e-07
0.0500012
2.68396e-07
-3.08667e-07
0.0500012
6.50471e-08
-6.37175e-08
0.0500012
6.95397e-09
-3.92999e-09
0.0500012
5.77847e-09
-6.53355e-09
0.0500012
4.63162e-09
-4.29109e-09
0.0500012
8.76037e-10
-8.51142e-10
-3.07627e-10
-8.31085e-11
0.0500004
3.87548e-07
-7.00257e-07
0.0500007
4.24135e-07
-7.13311e-07
0.0500011
3.43435e-07
-5.98473e-07
0.0500012
1.88557e-07
-3.09297e-07
0.0500012
5.06345e-08
-6.3981e-08
0.0500012
7.21478e-09
-3.91891e-09
0.0500012
4.15007e-09
-6.54218e-09
0.0500012
3.63401e-09
-4.30634e-09
0.0500012
7.877e-10
-8.19949e-10
-3.32781e-10
-7.23167e-11
0.0500004
2.08718e-07
-7.00682e-07
0.0500007
2.35002e-07
-7.12717e-07
0.050001
1.88612e-07
-5.97298e-07
0.0500012
1.05655e-07
-3.08621e-07
0.0500012
3.15947e-08
-6.35851e-08
0.0500012
5.40431e-09
-3.79192e-09
0.0500012
2.0878e-09
-6.59977e-09
0.0500012
2.40233e-09
-4.38355e-09
0.0500012
6.00774e-10
-8.11286e-10
-3.63723e-10
-5.54173e-11
0.0500004
3.69516e-08
-7.00288e-07
0.0500007
4.52327e-08
-7.13523e-07
0.050001
3.36154e-08
-5.98837e-07
0.0500012
2.04649e-08
-3.09662e-07
0.0500012
1.00669e-08
-6.38648e-08
0.0500012
2.66237e-09
-3.74344e-09
0.0500012
-9.68626e-11
-6.65573e-09
0.0500012
1.03705e-09
-4.41881e-09
0.0500012
3.71252e-10
-7.51415e-10
-3.78863e-10
-5.09446e-11
0.0500004
-1.34096e-07
-7.00721e-07
0.0500007
-1.44935e-07
-7.13262e-07
0.050001
-1.20776e-07
-5.97707e-07
0.0500012
-6.47001e-08
-3.0893e-07
0.0500012
-1.23009e-08
-6.35246e-08
0.0500012
-3.31489e-10
-3.59386e-09
0.0500012
-2.09968e-09
-6.66269e-09
0.0500012
-3.91904e-10
-4.48213e-09
0.0500012
8.81705e-11
-7.13764e-10
-3.45288e-10
-1.10398e-11
0.0500004
-3.09304e-07
-7.00461e-07
0.0500007
-3.34097e-07
-7.12903e-07
0.050001
-2.7622e-07
-5.97956e-07
0.0500012
-1.48553e-07
-3.09372e-07
0.0500012
-3.29623e-08
-6.37673e-08
0.0500012
-2.77483e-09
-3.55402e-09
0.0500012
-4.03498e-09
-6.70132e-09
0.0500012
-1.89548e-09
-4.57113e-09
0.0500012
-1.93729e-10
-6.94802e-10
-2.5306e-10
1.1201e-11
0.0500004
-4.93474e-07
-7.00537e-07
0.0500007
-5.21684e-07
-7.13281e-07
0.050001
-4.3325e-07
-5.98113e-07
0.0500012
-2.29343e-07
-3.0925e-07
0.0500012
-4.97264e-08
-6.35776e-08
0.0500012
-3.38229e-09
-3.40546e-09
0.0500012
-5.40949e-09
-6.72515e-09
0.0500012
-3.26199e-09
-4.64335e-09
0.0500012
-4.22463e-10
-6.68358e-10
-1.37339e-10
4.21383e-11
0.0500004
-6.94003e-07
-7.00607e-07
0.0500008
-7.04122e-07
-7.13084e-07
0.0500011
-5.90995e-07
-5.97801e-07
0.0500012
-3.04783e-07
-3.09219e-07
0.0500012
-6.17019e-08
-6.3776e-08
0.0500012
-2.77954e-09
-3.46675e-09
0.0500012
-6.46889e-09
-6.73493e-09
0.0500012
-4.55686e-09
-4.68193e-09
0.0500012
-6.04886e-10
-6.50238e-10
6.72888e-11
5.6884e-11
0.0499995
-7.00423e-07
0.049999
-7.13201e-07
0.0499985
-5.98057e-07
0.0499983
-3.09209e-07
0.0499982
-6.37063e-08