/*--------------------------------*- C++ -*----------------------------------*\
| =========                 |                                                 |
| \\      /  F ield         | OpenFOAM: The Open Source CFD Toolbox           |
|  \\    /   O peration     | Version:  1.7.x                                 |
|   \\  /    A nd           | Web:      www.OpenFOAM.com                      |
|    \\/     M anipulation  |                                                 |
\*---------------------------------------------------------------------------*/
FoamFile
{
    version     2.0;
    format      ascii;
    class       volVectorField;
    location    "0.3";
    object      U;
}
// * * * * * * * * * * * * * * * * * * * * * * * * * * * * * * * * * * * * * //

dimensions      [0 1 -1 0 0 0 0];

internalField   nonuniform List<vector> 
1000
(
(4.80333 1.05946e-05 9.45193e-06)
(4.94978 1.21558e-05 1.09912e-05)
(5.17763 1.03654e-05 9.47017e-06)
(5.04401 5.64166e-06 5.13113e-06)
(4.95346 1.42587e-06 1.26627e-06)
(4.97998 1.11618e-07 8.57472e-08)
(5.00321 9.34069e-08 8.35425e-08)
(5.00322 7.16168e-08 6.50687e-08)
(4.99963 1.22968e-08 1.04449e-08)
(4.9991 -3.42865e-09 -3.43748e-09)
(4.80338 1.60068e-05 9.45615e-06)
(4.94993 1.70411e-05 1.0991e-05)
(5.17788 1.40265e-05 9.45892e-06)
(5.04432 7.4378e-06 5.12605e-06)
(4.95379 1.72194e-06 1.27067e-06)
(4.98031 1.15559e-07 8.85815e-08)
(5.00354 1.51407e-07 8.68302e-08)
(5.00355 1.25383e-07 6.79562e-08)
(4.99996 1.83956e-08 1.06341e-08)
(4.99943 -9.44961e-09 -3.39387e-09)
(4.80338 9.18685e-06 9.45391e-06)
(4.94993 9.25166e-06 1.09924e-05)
(5.17788 7.36543e-06 9.46299e-06)
(5.04432 3.94689e-06 5.13028e-06)
(4.95379 9.44739e-07 1.27201e-06)
(4.98031 1.08546e-07 8.85217e-08)
(5.00354 1.18381e-07 8.71423e-08)
(5.00355 1.01694e-07 6.85881e-08)
(4.99996 9.89291e-09 1.04224e-08)
(4.99943 -1.29947e-08 -3.6547e-09)
(4.80338 5.86434e-06 9.45595e-06)
(4.94993 6.74948e-06 1.09913e-05)
(5.17788 5.59239e-06 9.46199e-06)
(5.04432 3.19279e-06 5.1323e-06)
(4.95379 9.32453e-07 1.27374e-06)
(4.9803 1.31658e-07 8.79298e-08)
(5.00354 8.99687e-08 8.65467e-08)
(5.00355 8.641e-08 6.94392e-08)
(4.99996 4.24518e-09 1.10989e-08)
(4.99943 -1.62995e-08 -4.26641e-09)
(4.80338 2.46723e-06 9.45863e-06)
(4.94993 2.82269e-06 1.09844e-05)
(5.17788 2.21355e-06 9.45942e-06)
(5.04432 1.25107e-06 5.13115e-06)
(4.95379 3.67242e-07 1.27231e-06)
(4.9803 3.11296e-08 8.70279e-08)
(5.00354 4.11245e-08 8.64854e-08)
(5.00355 6.41462e-08 6.96614e-08)
(4.99996 -2.86695e-09 1.17201e-08)
(4.99943 -1.89564e-08 -3.86004e-09)
(4.80338 -9.78529e-07 9.45039e-06)
(4.94993 -1.02775e-06 1.09913e-05)
(5.17788 -8.47625e-07 9.46845e-06)
(5.04432 -3.64035e-07 5.13359e-06)
(4.95379 -3.04991e-09 1.27167e-06)
(4.9803 -2.20076e-09 8.65367e-08)
(5.00354 5.88049e-09 8.63977e-08)
(5.00355 3.66554e-08 7.03968e-08)
(4.99996 -8.30216e-09 1.17957e-08)
(4.99943 -1.796e-08 -4.00888e-09)
(4.80338 -4.35097e-06 9.45525e-06)
(4.94993 -4.96821e-06 1.09899e-05)
(5.17788 -4.23338e-06 9.4639e-06)
(5.04432 -2.31967e-06 5.13369e-06)
(4.95379 -5.80145e-07 1.27415e-06)
(4.9803 -9.74895e-08 8.70094e-08)
(5.00354 -4.45024e-08 8.6018e-08)
(5.00355 4.40266e-10 6.99525e-08)
(4.99996 -1.4652e-08 1.11574e-08)
(4.99943 -1.58894e-08 -4.17872e-09)
(4.80338 -7.59275e-06 9.45669e-06)
(4.94993 -7.56214e-06 1.09938e-05)
(5.17788 -6.13145e-06 9.45747e-06)
(5.04432 -3.18155e-06 5.1291e-06)
(4.95379 -6.59033e-07 1.2768e-06)
(4.98031 -8.00791e-08 9.02559e-08)
(5.00354 -7.8781e-08 8.57602e-08)
(5.00355 -2.84718e-08 6.95319e-08)
(4.99996 -1.51069e-08 1.24006e-08)
(4.99943 -1.11252e-08 -3.39294e-09)
(4.80338 -1.39969e-05 9.4516e-06)
(4.94993 -1.49809e-05 1.09931e-05)
(5.17788 -1.2487e-05 9.46743e-06)
(5.04432 -6.53265e-06 5.13682e-06)
(4.95379 -1.41858e-06 1.27843e-06)
(4.98031 -7.91065e-08 9.09601e-08)
(5.00354 -1.23865e-07 8.63228e-08)
(5.00355 -7.84038e-08 6.88554e-08)
(4.99996 -1.96732e-08 1.18797e-08)
(4.99943 -4.7292e-09 -3.22151e-09)
(4.80334 -9.39907e-06 9.45236e-06)
(4.9498 -1.09196e-05 1.09959e-05)
(5.17766 -9.41557e-06 9.4704e-06)
(5.04403 -5.09716e-06 5.13832e-06)
(4.95349 -1.25282e-06 1.28058e-06)
(4.98001 -9.00966e-08 9.26874e-08)
(5.00324 -8.38963e-08 8.46558e-08)
(5.00325 -6.04675e-08 6.70016e-08)
(4.99966 -1.42249e-08 1.21865e-08)
(4.99913 -1.15354e-09 -2.59232e-09)
(4.80338 1.05988e-05 1.41926e-05)
(4.94992 1.21556e-05 1.52695e-05)
(5.17786 1.03542e-05 1.26984e-05)
(5.04429 5.63659e-06 6.67603e-06)
(4.95376 1.4303e-06 1.48983e-06)
(4.98028 1.14452e-07 7.73789e-08)
(5.00351 9.66908e-08 1.31733e-07)
(5.00352 7.44975e-08 1.13044e-07)
(4.99993 1.24902e-08 1.49056e-08)
(4.9994 -3.3865e-09 -9.57716e-09)
(4.80342 1.60088e-05 1.41946e-05)
(4.95006 1.70425e-05 1.52708e-05)
(5.17811 1.40196e-05 1.26915e-05)
(5.0446 7.43717e-06 6.67544e-06)
(4.95409 1.72779e-06 1.49565e-06)
(4.9806 1.18369e-07 8.02397e-08)
(5.00383 1.55018e-07 1.35357e-07)
(5.00385 1.28907e-07 1.16564e-07)
(5.00026 1.83784e-08 1.49022e-08)
(4.99973 -9.66779e-09 -9.79968e-09)
(4.80342 9.18674e-06 1.41937e-05)
(4.95006 9.25229e-06 1.52626e-05)
(5.17811 7.36894e-06 1.26907e-05)
(5.0446 3.95354e-06 6.67322e-06)
(4.95409 9.48017e-07 1.48914e-06)
(4.9806 1.07957e-07 7.53037e-08)
(5.00383 1.18101e-07 1.31978e-07)
(5.00385 1.0318e-07 1.144e-07)
(5.00026 1.03609e-08 1.41026e-08)
(4.99973 -1.38808e-08 -9.74856e-09)
(4.80342 5.86911e-06 1.41914e-05)
(4.95006 6.74166e-06 1.5272e-05)
(5.17811 5.58913e-06 1.27083e-05)
(5.0446 3.19394e-06 6.68388e-06)
(4.95409 9.32906e-07 1.49205e-06)
(4.9806 1.3022e-07 7.62864e-08)
(5.00383 8.93156e-08 1.3211e-07)
(5.00385 8.74875e-08 1.14727e-07)
(5.00026 5.54577e-09 1.50748e-08)
(4.99973 -1.65017e-08 -9.97689e-09)
(4.80342 2.46172e-06 1.41976e-05)
(4.95006 2.82286e-06 1.52508e-05)
(5.17811 2.22013e-06 1.26949e-05)
(5.0446 1.25246e-06 6.67314e-06)
(4.95409 3.6524e-07 1.48389e-06)
(4.9806 2.97601e-08 7.4089e-08)
(5.00383 4.09862e-08 1.30937e-07)
(5.00385 6.51169e-08 1.12962e-07)
(5.00026 -2.15817e-09 1.5505e-08)
(4.99973 -1.86919e-08 -9.41756e-09)
(4.80342 -9.81914e-07 1.4185e-05)
(4.95006 -1.02225e-06 1.52697e-05)
(5.17811 -8.43194e-07 1.27138e-05)
(5.0446 -3.61539e-07 6.68474e-06)
(4.95409 -1.21447e-09 1.48943e-06)
(4.9806 -2.24082e-09 7.57953e-08)
(5.00383 5.40375e-09 1.301e-07)
(5.00385 3.69518e-08 1.11173e-07)
(5.00026 -8.86211e-09 1.6178e-08)
(4.99973 -1.82847e-08 -8.56039e-09)
(4.80342 -4.34473e-06 1.41951e-05)
(4.95006 -4.96593e-06 1.52625e-05)
(5.17811 -4.24459e-06 1.26951e-05)
(5.0446 -2.32439e-06 6.67001e-06)
(4.95409 -5.75157e-07 1.4872e-06)
(4.9806 -9.3808e-08 7.83228e-08)
(5.00383 -4.51625e-08 1.28544e-07)
(5.00385 -4.28432e-10 1.08936e-07)
(5.00026 -1.4051e-08 1.67414e-08)
(4.99973 -1.52814e-08 -7.845e-09)
(4.80342 -7.5965e-06 1.41929e-05)
(4.95006 -7.55917e-06 1.52674e-05)
(5.17811 -6.12829e-06 1.26962e-05)
(5.0446 -3.17874e-06 6.67275e-06)
(4.95409 -6.54922e-07 1.49548e-06)
(4.9806 -7.61733e-08 8.47925e-08)
(5.00383 -7.84802e-08 1.27894e-07)
(5.00385 -2.95628e-08 1.07738e-07)
(5.00026 -1.43895e-08 1.81101e-08)
(4.99973 -1.01685e-08 -7.03265e-09)
(4.80342 -1.40013e-05 1.41973e-05)
(4.95006 -1.49789e-05 1.52641e-05)
(5.17811 -1.24743e-05 1.26859e-05)
(5.0446 -6.5236e-06 6.66492e-06)
(4.95409 -1.41487e-06 1.49215e-06)
(4.9806 -7.67011e-08 8.40237e-08)
(5.00383 -1.24971e-07 1.25227e-07)
(5.00385 -8.09383e-08 1.04913e-07)
(5.00026 -1.98798e-08 1.76663e-08)
(4.99973 -3.91839e-09 -6.64193e-09)
(4.80338 -9.39831e-06 1.41984e-05)
(4.94993 -1.09168e-05 1.526e-05)
(5.17788 -9.4126e-06 1.26855e-05)
(5.04432 -5.09568e-06 6.66267e-06)
(4.95379 -1.25068e-06 1.49203e-06)
(4.98031 -8.83684e-08 8.72406e-08)
(5.00354 -8.55747e-08 1.25076e-07)
(5.00355 -6.23283e-08 1.03804e-07)
(4.99996 -1.39201e-08 1.86102e-08)
(4.99943 -5.27833e-10 -5.84404e-09)
(4.80338 1.05965e-05 7.94627e-06)
(4.94992 1.2157e-05 8.01815e-06)
(5.17786 1.03583e-05 6.45318e-06)
(5.04429 5.6409e-06 3.3999e-06)
(4.95376 1.43159e-06 7.60744e-07)
(4.98028 1.14448e-07 6.6913e-08)
(5.00351 9.70335e-08 9.73341e-08)
(5.00352 7.51435e-08 9.01201e-08)
(4.99993 1.22873e-08 6.44799e-09)
(4.9994 -3.6489e-09 -1.3385e-08)
(4.80342 1.60079e-05 7.94608e-06)
(4.95006 1.70343e-05 8.01914e-06)
(5.17811 1.40189e-05 6.45686e-06)
(5.0446 7.43503e-06 3.40653e-06)
(4.95409 1.72126e-06 7.63938e-07)
(4.9806 1.13491e-07 6.64392e-08)
(5.00383 1.51641e-07 9.71169e-08)
(5.00385 1.26743e-07 9.16328e-08)
(5.00026 1.75919e-08 6.88865e-09)
(4.99973 -9.61626e-09 -1.42635e-08)
(4.80342 9.18379e-06 7.94346e-06)
(4.95006 9.25322e-06 8.02026e-06)
(5.17811 7.38263e-06 6.47036e-06)
(5.0446 3.95573e-06 3.40862e-06)
(4.95409 9.41358e-07 7.57247e-07)
(4.9806 1.0467e-07 6.28164e-08)
(5.00383 1.15151e-07 9.40359e-08)
(5.00385 9.98641e-08 8.82642e-08)
(5.00026 1.00622e-08 6.57505e-09)
(4.99973 -1.31685e-08 -1.35582e-08)
(4.80342 5.86822e-06 7.93966e-06)
(4.95006 6.73797e-06 8.0293e-06)
(5.17811 5.59682e-06 6.48104e-06)
(5.0446 3.19298e-06 3.41268e-06)
(4.95409 9.27363e-07 7.57114e-07)
(4.9806 1.30492e-07 6.50985e-08)
(5.00383 8.89436e-08 9.35967e-08)
(5.00385 8.49812e-08 8.77692e-08)
(5.00026 5.64895e-09 7.35605e-09)
(4.99973 -1.59743e-08 -1.31843e-08)
(4.80342 2.46085e-06 7.94187e-06)
(4.95006 2.82047e-06 8.01742e-06)
(5.17811 2.21923e-06 6.47647e-06)
(5.0446 1.25202e-06 3.40306e-06)
(4.95409 3.6467e-07 7.49413e-07)
(4.9806 3.06533e-08 6.59288e-08)
(5.00383 3.91037e-08 9.11693e-08)
(5.00385 6.05934e-08 8.39325e-08)
(5.00026 -1.76074e-09 7.86393e-09)
(4.99973 -1.75464e-08 -1.17661e-08)
(4.80342 -9.81042e-07 7.93939e-06)
(4.95006 -1.01615e-06 8.03016e-06)
(5.17811 -8.47482e-07 6.48605e-06)
(5.0446 -3.67222e-07 3.41046e-06)
(4.95409 2.45295e-10 7.56916e-07)
(4.9806 2.02874e-09 7.14065e-08)
(5.00383 3.48484e-09 8.79667e-08)
(5.00385 3.26249e-08 7.88792e-08)
(5.00026 -7.06946e-09 8.91976e-09)
(4.99973 -1.63847e-08 -1.01217e-08)
(4.80342 -4.3431e-06 7.9446e-06)
(4.95006 -4.97061e-06 8.02013e-06)
(5.17811 -4.2512e-06 6.46605e-06)
(5.0446 -2.33188e-06 3.39525e-06)
(4.95409 -5.74199e-07 7.58802e-07)
(4.9806 -8.8525e-08 7.89563e-08)
(5.00383 -4.67176e-08 8.56054e-08)
(5.00385 -2.98861e-09 7.51601e-08)
(5.00026 -1.2711e-08 1.09506e-08)
(4.99973 -1.43572e-08 -8.71266e-09)
(4.80342 -7.59055e-06 7.94113e-06)
(4.95006 -7.56071e-06 8.02394e-06)
(5.17811 -6.14098e-06 6.47374e-06)
(5.0446 -3.18698e-06 3.40045e-06)
(4.95409 -6.54253e-07 7.64416e-07)
(4.9806 -7.44465e-08 8.27532e-08)
(5.00383 -8.21173e-08 8.18802e-08)
(5.00385 -3.2513e-08 7.2038e-08)
(5.00026 -1.41871e-08 1.19094e-08)
(4.99973 -9.93687e-09 -7.78421e-09)
(4.80342 -1.39914e-05 7.94045e-06)
(4.95006 -1.49884e-05 8.02143e-06)
(5.17811 -1.24978e-05 6.47099e-06)
(5.0446 -6.54273e-06 3.39784e-06)
(4.95409 -1.42203e-06 7.68267e-07)
(4.9806 -7.66631e-08 8.61712e-08)
(5.00383 -1.26693e-07 7.89952e-08)
(5.00385 -8.23441e-08 6.8621e-08)
(5.00026 -1.91805e-08 1.27826e-08)
(4.99973 -3.55516e-09 -7.0746e-09)
(4.80338 -9.39793e-06 7.93826e-06)
(4.94993 -1.09237e-05 8.02683e-06)
(5.17788 -9.41577e-06 6.4811e-06)
(5.04432 -5.09923e-06 3.40066e-06)
(4.95379 -1.25285e-06 7.68793e-07)
(4.9803 -8.68472e-08 8.73634e-08)
(5.00354 -8.40422e-08 7.91058e-08)
(5.00355 -6.15734e-08 6.85532e-08)
(4.99996 -1.32822e-08 1.3269e-08)
(4.99943 -3.58724e-10 -6.72894e-09)
(4.80338 1.05986e-05 4.82994e-06)
(4.94991 1.21563e-05 5.58539e-06)
(5.17786 1.03574e-05 4.70803e-06)
(5.04429 5.64286e-06 2.6456e-06)
(4.95376 1.43331e-06 7.19793e-07)
(4.98028 1.13937e-07 7.30081e-08)
(5.00351 9.64682e-08 6.73489e-08)
(5.00352 7.60086e-08 7.48321e-08)
(4.99993 1.29316e-08 6.66572e-10)
(4.9994 -4.25879e-09 -1.68732e-08)
(4.80342 1.60059e-05 4.83346e-06)
(4.95006 1.70444e-05 5.57826e-06)
(5.17811 1.40364e-05 4.70701e-06)
(5.0446 7.44554e-06 2.64775e-06)
(4.95409 1.7241e-06 7.20526e-07)
(4.9806 1.14207e-07 7.17226e-08)
(5.00383 1.51702e-07 6.66995e-08)
(5.00385 1.27038e-07 7.59129e-08)
(5.00026 1.85032e-08 1.97925e-09)
(4.99973 -9.84204e-09 -1.70717e-08)
(4.80342 9.18031e-06 4.83051e-06)
(4.95006 9.26246e-06 5.57425e-06)
(5.17811 7.39313e-06 4.71624e-06)
(5.0446 3.95969e-06 2.64762e-06)
(4.95409 9.41175e-07 7.15366e-07)
(4.9806 1.06617e-07 7.19605e-08)
(5.00383 1.146e-07 6.62621e-08)
(5.00385 9.93216e-08 7.33715e-08)
(5.00026 1.0824e-08 2.03725e-09)
(4.99973 -1.28003e-08 -1.6542e-08)
(4.80342 5.86752e-06 4.83115e-06)
(4.95006 6.73881e-06 5.57571e-06)
(5.17811 5.59525e-06 4.71354e-06)
(5.0446 3.18837e-06 2.64149e-06)
(4.95409 9.25073e-07 7.12683e-07)
(4.9806 1.3332e-07 7.4679e-08)
(5.00383 8.6439e-08 6.37443e-08)
(5.00385 8.31505e-08 7.15601e-08)
(5.00026 6.83001e-09 3.07105e-09)
(4.99973 -1.47192e-08 -1.52953e-08)
(4.80342 2.46144e-06 4.82528e-06)
(4.95006 2.82372e-06 5.58932e-06)
(5.17811 2.22514e-06 4.72091e-06)
(5.0446 1.25023e-06 2.64636e-06)
(4.95409 3.65033e-07 7.21599e-07)
(4.9806 3.60518e-08 8.10592e-08)
(5.00383 3.53418e-08 6.01344e-08)
(5.00385 5.62192e-08 6.71638e-08)
(5.00026 -6.07711e-10 4.47652e-09)
(4.99973 -1.56383e-08 -1.36753e-08)
(4.80342 -9.79176e-07 4.83312e-06)
(4.95006 -1.01955e-06 5.5718e-06)
(5.17811 -8.53639e-07 4.69492e-06)
(5.0446 -3.69367e-07 2.62948e-06)
(4.95409 8.17755e-09 7.23552e-07)
(4.9806 1.07882e-08 9.07446e-08)
(5.00383 -1.67989e-10 5.64838e-08)
(5.00385 2.81583e-08 6.25166e-08)
(5.00026 -5.77692e-09 7.27208e-09)
(4.99973 -1.5235e-08 -1.18892e-08)
(4.80342 -4.34299e-06 4.82961e-06)
(4.95006 -4.97216e-06 5.57857e-06)
(5.17811 -4.2569e-06 4.70976e-06)
(5.0446 -2.33438e-06 2.63482e-06)
(4.95409 -5.6764e-07 7.31266e-07)
(4.9806 -8.24715e-08 9.89874e-08)
(5.00383 -5.12504e-08 5.39949e-08)
(5.00385 -7.28135e-09 5.79024e-08)
(5.00026 -1.1071e-08 8.21936e-09)
(4.99973 -1.29469e-08 -1.02357e-08)
(4.80342 -7.60066e-06 4.82903e-06)
(4.95006 -7.55787e-06 5.58146e-06)
(5.17811 -6.12335e-06 4.70848e-06)
(5.0446 -3.17615e-06 2.62964e-06)
(4.95409 -6.45462e-07 7.33214e-07)
(4.9806 -6.8961e-08 1.0235e-07)
(5.00383 -8.50932e-08 4.84786e-08)
(5.00385 -3.61016e-08 5.36103e-08)
(5.00026 -1.25581e-08 9.9698e-09)
(4.99973 -8.53603e-09 -8.97968e-09)
(4.80342 -1.40041e-05 4.83135e-06)
(4.95006 -1.49758e-05 5.5777e-06)
(5.17811 -1.24666e-05 4.71398e-06)
(5.0446 -6.52306e-06 2.62787e-06)
(4.95409 -1.41034e-06 7.31784e-07)
(4.9806 -7.2034e-08 1.03268e-07)
(5.00383 -1.27749e-07 4.58955e-08)
(5.00385 -8.44247e-08 4.9978e-08)
(5.00026 -1.85297e-08 1.06728e-08)
(4.99973 -2.87444e-09 -7.32254e-09)
(4.80338 -9.4004e-06 4.82906e-06)
(4.94993 -1.09112e-05 5.57618e-06)
(5.17788 -9.4021e-06 4.70837e-06)
(5.04432 -5.09253e-06 2.62501e-06)
(4.95379 -1.24998e-06 7.35954e-07)
(4.9803 -8.71209e-08 1.07245e-07)
(5.00354 -8.54602e-08 4.51221e-08)
(5.00355 -6.23943e-08 4.96551e-08)
(4.99996 -1.34494e-08 1.18545e-08)
(4.99943 -1.93234e-10 -7.6296e-09)
(4.80338 1.06e-05 1.63159e-06)
(4.94991 1.21497e-05 1.8356e-06)
(5.17786 1.0357e-05 1.47237e-06)
(5.04429 5.64282e-06 7.86384e-07)
(4.95376 1.43218e-06 1.77157e-07)
(4.98028 1.13121e-07 -2.4499e-08)
(5.00351 9.63793e-08 1.95907e-08)
(5.00352 7.6214e-08 5.31249e-08)
(4.99993 1.3592e-08 -6.45671e-09)
(4.9994 -3.84975e-09 -1.95947e-08)
(4.80342 1.60085e-05 1.62672e-06)
(4.95006 1.7023e-05 1.83599e-06)
(5.17811 1.40269e-05 1.47698e-06)
(5.0446 7.43681e-06 7.87028e-07)
(4.95409 1.7167e-06 1.75031e-07)
(4.9806 1.12387e-07 -2.59464e-08)
(5.00383 1.50562e-07 1.94914e-08)
(5.00385 1.25289e-07 5.41006e-08)
(5.00026 1.89645e-08 -5.73127e-09)
(4.99973 -9.29011e-09 -1.93403e-08)
(4.80342 9.18148e-06 1.62748e-06)
(4.95006 9.25067e-06 1.83391e-06)
(5.17811 7.38917e-06 1.47418e-06)
(5.0446 3.94947e-06 7.85695e-07)
(4.95409 9.33519e-07 1.74044e-07)
(4.9806 1.07631e-07 -2.46208e-08)
(5.00383 1.12198e-07 1.75268e-08)
(5.00385 9.55118e-08 4.95517e-08)
(5.00026 1.11665e-08 -5.37203e-09)
(4.99973 -1.13827e-08 -1.8188e-08)
(4.80342 5.863e-06 1.62682e-06)
(4.95006 6.75303e-06 1.84111e-06)
(5.17811 5.60148e-06 1.48288e-06)
(5.0446 3.19172e-06 7.84969e-07)
(4.95409 9.33601e-07 1.75126e-07)
(4.9806 1.39588e-07 -1.89919e-08)
(5.00383 8.28049e-08 1.3886e-08)
(5.00385 7.87693e-08 4.52409e-08)
(5.00026 8.09128e-09 -4.3123e-09)
(4.99973 -1.31012e-08 -1.62834e-08)
(4.80342 2.46282e-06 1.62776e-06)
(4.95006 2.81656e-06 1.83181e-06)
(5.17811 2.20061e-06 1.45954e-06)
(5.0446 1.24001e-06 7.7533e-07)
(4.95409 3.75525e-07 1.85344e-07)
(4.9806 4.67209e-08 -8.83582e-09)
(5.00383 3.18431e-08 1.0183e-08)
(5.00385 5.15501e-08 4.05448e-08)
(5.00026 2.43473e-09 -1.23419e-09)
(4.99973 -1.41443e-08 -1.47898e-08)
(4.80342 -9.76721e-07 1.63103e-06)
(4.95006 -1.0269e-06 1.82192e-06)
(5.1781 -8.58631e-07 1.4594e-06)
(5.0446 -3.78762e-07 7.70042e-07)
(4.95409 9.90261e-09 1.88329e-07)
(4.9806 1.99603e-08 -1.5857e-10)
(5.00383 -2.66242e-09 7.14033e-09)
(5.00385 2.33668e-08 3.52436e-08)
(5.00026 -3.32377e-09 1.15775e-09)
(4.99973 -1.2951e-08 -1.24185e-08)
(4.80342 -4.34719e-06 1.62797e-06)
(4.95006 -4.96095e-06 1.83425e-06)
(5.17811 -4.23764e-06 1.4708e-06)
(5.0446 -2.33172e-06 7.66707e-07)
(4.95409 -5.64539e-07 1.88006e-07)
(4.9806 -7.69143e-08 2.71288e-09)
(5.00383 -5.47244e-08 1.2685e-09)
(5.00385 -1.18834e-08 2.94015e-08)
(5.00026 -1.00051e-08 1.8013e-09)
(4.99973 -1.14442e-08 -1.06056e-08)
(4.80342 -7.58881e-06 1.63178e-06)
(4.95006 -7.56158e-06 1.82885e-06)
(5.17811 -6.13676e-06 1.46286e-06)
(5.0446 -3.19392e-06 7.602e-07)
(4.95409 -6.53742e-07 1.93368e-07)
(4.9806 -7.01694e-08 1.03732e-08)
(5.00383 -9.02121e-08 -2.41539e-09)
(5.00385 -4.04372e-08 2.60124e-08)
(5.00026 -1.17479e-08 4.31975e-09)
(4.99973 -7.01679e-09 -9.31515e-09)
(4.80342 -1.39913e-05 1.63452e-06)
(4.95006 -1.49935e-05 1.83431e-06)
(5.17811 -1.24977e-05 1.46065e-06)
(5.0446 -6.54714e-06 7.53e-07)
(4.95409 -1.41916e-06 1.94284e-07)
(4.9806 -7.17244e-08 1.23987e-08)
(5.00383 -1.30039e-07 -5.71954e-09)
(5.00385 -8.63115e-08 2.24753e-08)
(5.00026 -1.72994e-08 5.9119e-09)
(4.99973 -2.21148e-09 -8.02156e-09)
(4.80338 -9.40017e-06 1.63363e-06)
(4.94993 -1.0925e-05 1.82035e-06)
(5.17788 -9.42113e-06 1.44944e-06)
(5.04432 -5.10186e-06 7.47076e-07)
(4.95379 -1.24855e-06 1.94847e-07)
(4.9803 -8.28335e-08 1.62515e-08)
(5.00354 -8.48094e-08 -5.11092e-09)
(5.00355 -6.18906e-08 2.23403e-08)
(4.99996 -1.20894e-08 7.26298e-09)
(4.99943 -6.71072e-10 -7.51549e-09)
(4.80338 1.05937e-05 -1.63029e-06)
(4.94991 1.21566e-05 -1.83687e-06)
(5.17786 1.03619e-05 -1.46143e-06)
(5.04429 5.64343e-06 -7.58128e-07)
(4.95376 1.43112e-06 -1.757e-07)
(4.98028 1.12482e-07 -5.44968e-08)
(5.00351 9.63722e-08 -1.38013e-08)
(5.00352 7.69826e-08 2.68664e-08)
(4.99993 1.36515e-08 -1.17642e-08)
(4.9994 -4.0063e-09 -1.8613e-08)
(4.80342 1.60018e-05 -1.63206e-06)
(4.95006 1.70426e-05 -1.83213e-06)
(5.17811 1.40381e-05 -1.45934e-06)
(5.0446 7.44477e-06 -7.56315e-07)
(4.95409 1.72095e-06 -1.73785e-07)
(4.9806 1.14076e-07 -5.44183e-08)
(5.00383 1.49653e-07 -1.41554e-08)
(5.00385 1.23482e-07 2.72019e-08)
(5.00026 1.95884e-08 -1.2349e-08)
(4.99973 -8.42642e-09 -1.89428e-08)
(4.80342 9.18042e-06 -1.6278e-06)
(4.95006 9.26758e-06 -1.82706e-06)
(5.17811 7.39905e-06 -1.46721e-06)
(5.0446 3.95763e-06 -7.63308e-07)
(4.95409 9.41284e-07 -1.73004e-07)
(4.9806 1.13574e-07 -5.02477e-08)
(5.00383 1.08992e-07 -1.62901e-08)
(5.00385 9.04701e-08 2.28306e-08)
(5.00026 1.22499e-08 -1.05768e-08)
(4.99973 -9.73469e-09 -1.70359e-08)
(4.80342 5.8678e-06 -1.62764e-06)
(4.95006 6.73672e-06 -1.82708e-06)
(5.17811 5.5806e-06 -1.47063e-06)
(5.0446 3.17801e-06 -7.64831e-07)
(4.95409 9.36386e-07 -1.64879e-07)
(4.9806 1.49112e-07 -4.14009e-08)
(5.00383 7.91058e-08 -1.98353e-08)
(5.00385 7.41458e-08 1.84106e-08)
(5.00026 1.0974e-08 -9.20507e-09)
(4.99973 -1.13202e-08 -1.58884e-08)
(4.80342 2.46566e-06 -1.62544e-06)
(4.95006 2.80453e-06 -1.8358e-06)
(5.17811 2.20165e-06 -1.47371e-06)
(5.0446 1.2353e-06 -7.71185e-07)
(4.95409 3.78235e-07 -1.62203e-07)
(4.9806 5.48885e-08 -3.26616e-08)
(5.00383 2.86016e-08 -2.25589e-08)
(5.00385 4.62232e-08 1.35726e-08)
(5.00026 4.86535e-09 -6.7548e-09)
(4.99973 -1.17655e-08 -1.36116e-08)
(4.80342 -9.78965e-07 -1.6282e-06)
(4.95006 -1.0171e-06 -1.8235e-06)
(5.1781 -8.42362e-07 -1.45904e-06)
(5.0446 -3.77982e-07 -7.74479e-07)
(4.95409 1.08309e-08 -1.62825e-07)
(4.9806 2.23532e-08 -3.04041e-08)
(5.00383 -9.08663e-09 -2.86401e-08)
(5.00385 1.70095e-08 7.2523e-09)
(5.00026 -2.7455e-09 -6.09095e-09)
(4.99973 -1.10522e-08 -1.16977e-08)
(4.80342 -4.34224e-06 -1.63506e-06)
(4.95006 -4.96523e-06 -1.82244e-06)
(5.17811 -4.25342e-06 -1.46175e-06)
(5.0446 -2.34422e-06 -7.75721e-07)
(4.95409 -5.62601e-07 -1.50266e-07)
(4.9806 -7.19335e-08 -1.99895e-08)
(5.00383 -6.07991e-08 -3.44966e-08)
(5.00385 -1.65092e-08 2.61773e-09)
(5.00026 -7.90006e-09 -2.5291e-09)
(4.99973 -9.83547e-09 -1.06352e-08)
(4.80342 -7.59412e-06 -1.63039e-06)
(4.95006 -7.55781e-06 -1.82567e-06)
(5.17811 -6.1335e-06 -1.46131e-06)
(5.0446 -3.18986e-06 -7.84353e-07)
(4.95409 -6.39183e-07 -1.54388e-07)
(4.9806 -5.92748e-08 -1.7262e-08)
(5.00383 -9.20835e-08 -3.81562e-08)
(5.00385 -4.30341e-08 -1.28886e-10)
(5.00026 -8.4444e-09 -3.61598e-10)
(4.99973 -5.94186e-09 -8.75575e-09)
(4.80342 -1.40022e-05 -1.63818e-06)
(4.95006 -1.49842e-05 -1.82653e-06)
(5.17811 -1.24799e-05 -1.45508e-06)
(5.0446 -6.53612e-06 -7.81916e-07)
(4.95409 -1.40882e-06 -1.47741e-07)
(4.9806 -6.61347e-08 -1.09968e-08)
(5.00383 -1.30443e-07 -3.91086e-08)
(5.00385 -8.80886e-08 -1.98217e-09)
(5.00026 -1.55864e-08 2.07745e-09)
(4.99973 -1.07673e-09 -8.52036e-09)
(4.80338 -9.40128e-06 -1.63692e-06)
(4.94993 -1.09251e-05 -1.81282e-06)
(5.17788 -9.41322e-06 -1.44443e-06)
(5.04432 -5.09838e-06 -7.80696e-07)
(4.95379 -1.24937e-06 -1.50004e-07)
(4.9803 -8.32512e-08 -1.06416e-08)
(5.00354 -8.4842e-08 -3.95551e-08)
(5.00355 -6.25246e-08 -3.94144e-09)
(4.99996 -1.20908e-08 2.03685e-09)
(4.99943 3.18507e-10 -7.14468e-09)
(4.80338 1.05982e-05 -4.83466e-06)
(4.94991 1.21544e-05 -5.57909e-06)
(5.17786 1.03592e-05 -4.69869e-06)
(5.04429 5.64472e-06 -2.62045e-06)
(4.95376 1.43415e-06 -7.16378e-07)
(4.98028 1.13211e-07 -1.43292e-07)
(5.00351 9.60322e-08 -6.17954e-08)
(5.00352 7.65481e-08 -7.44657e-09)
(4.99993 1.3002e-08 -1.75678e-08)
(4.9994 -4.18083e-09 -1.64729e-08)
(4.80342 1.6011e-05 -4.82888e-06)
(4.95006 1.70328e-05 -5.57708e-06)
(5.17811 1.40212e-05 -4.7082e-06)
(5.0446 7.43173e-06 -2.6245e-06)
(4.95409 1.71944e-06 -7.11468e-07)
(4.9806 1.16662e-07 -1.39375e-07)
(5.00383 1.48072e-07 -6.23786e-08)
(5.00385 1.21248e-07 -8.3386e-09)
(5.00026 2.01492e-08 -1.69659e-08)
(4.99973 -7.71103e-09 -1.58687e-08)
(4.80342 9.18588e-06 -4.82879e-06)
(4.95006 9.25574e-06 -5.58281e-06)
(5.17811 7.37789e-06 -4.7133e-06)
(5.0446 3.94096e-06 -2.63042e-06)
(4.95409 9.42432e-07 -7.09946e-07)
(4.9806 1.20646e-07 -1.34377e-07)
(5.00383 1.06531e-07 -6.40042e-08)
(5.00385 8.67427e-08 -1.0895e-08)
(5.00026 1.43168e-08 -1.56175e-08)
(4.99973 -8.32214e-09 -1.49342e-08)
(4.80342 5.86536e-06 -4.82751e-06)
(4.95006 6.7443e-06 -5.585e-06)
(5.17811 5.59498e-06 -4.7209e-06)
(5.0446 3.18384e-06 -2.63521e-06)
(4.95409 9.44405e-07 -7.04517e-07)
(4.9806 1.57182e-07 -1.28389e-07)
(5.00383 7.65514e-08 -6.8497e-08)
(5.00385 6.95094e-08 -1.52293e-08)
(5.00026 1.19143e-08 -1.39414e-08)
(4.99973 -9.67759e-09 -1.35266e-08)
(4.80342 2.46227e-06 -4.83279e-06)
(4.95006 2.82014e-06 -5.57317e-06)
(5.17811 2.21219e-06 -4.69861e-06)
(5.0446 1.23035e-06 -2.62804e-06)
(4.95409 3.77575e-07 -6.99567e-07)
(4.9806 5.77129e-08 -1.22681e-07)
(5.00383 2.30322e-08 -7.18344e-08)
(5.00385 4.03839e-08 -1.98352e-08)
(5.00026 5.54482e-09 -1.28718e-08)
(4.99973 -9.95919e-09 -1.20224e-08)
(4.80342 -9.86341e-07 -4.82579e-06)
(4.95006 -1.01354e-06 -5.57629e-06)
(5.17811 -8.46669e-07 -4.72046e-06)
(5.0446 -3.83311e-07 -2.64752e-06)
(4.95409 2.18507e-08 -7.00425e-07)
(4.9806 3.2628e-08 -1.18547e-07)
(5.00383 -1.45979e-08 -7.77836e-08)
(5.00385 1.24076e-08 -2.45314e-08)
(5.00026 9.05647e-10 -1.07301e-08)
(4.99973 -9.96155e-09 -1.04103e-08)
(4.80342 -4.34937e-06 -4.83375e-06)
(4.95006 -4.96312e-06 -5.57403e-06)
(5.17811 -4.23991e-06 -4.70561e-06)
(5.0446 -2.34158e-06 -2.64393e-06)
(4.95409 -5.56094e-07 -6.93671e-07)
(4.9806 -6.37624e-08 -1.09803e-07)
(5.00383 -6.42225e-08 -8.10254e-08)
(5.00385 -1.92617e-08 -2.71937e-08)
(5.00026 -4.27793e-09 -7.04317e-09)
(4.99973 -8.49936e-09 -9.06942e-09)
(4.80342 -7.59193e-06 -4.83297e-06)
(4.95006 -7.56568e-06 -5.57591e-06)
(5.17811 -6.13009e-06 -4.70965e-06)
(5.0446 -3.2001e-06 -2.65181e-06)
(4.95409 -6.51222e-07 -6.94703e-07)
(4.9806 -6.11708e-08 -1.05113e-07)
(5.00383 -9.48317e-08 -8.24275e-08)
(5.00385 -4.50307e-08 -2.9666e-08)
(5.00026 -7.13607e-09 -5.20388e-09)
(4.99973 -4.9113e-09 -6.94882e-09)
(4.80342 -1.39979e-05 -4.83417e-06)
(4.95006 -1.49807e-05 -5.57269e-06)
(5.17811 -1.24809e-05 -4.69972e-06)
(5.0446 -6.54355e-06 -2.6561e-06)
(4.95409 -1.41482e-06 -7.02386e-07)
(4.9806 -6.5134e-08 -1.06042e-07)
(5.00383 -1.31458e-07 -8.35829e-08)
(5.00385 -9.01409e-08 -3.20589e-08)
(5.00026 -1.49095e-08 -4.69789e-09)
(4.99973 -6.07724e-10 -6.1929e-09)
(4.80338 -9.39893e-06 -4.83126e-06)
(4.94993 -1.09113e-05 -5.57474e-06)
(5.17788 -9.41055e-06 -4.70815e-06)
(5.04432 -5.10072e-06 -2.65659e-06)
(4.95379 -1.25085e-06 -6.98927e-07)
(4.9803 -8.24831e-08 -1.01227e-07)
(5.00354 -8.52558e-08 -8.40564e-08)
(5.00355 -6.38552e-08 -3.39052e-08)
(4.99996 -1.21334e-08 -3.99991e-09)
(4.99943 7.03786e-10 -5.65517e-09)
(4.80338 1.05995e-05 -7.93891e-06)
(4.94992 1.21588e-05 -8.01483e-06)
(5.17786 1.03527e-05 -6.47457e-06)
(5.04429 5.63963e-06 -3.40121e-06)
(4.95376 1.43617e-06 -7.55284e-07)
(4.98028 1.16444e-07 -1.10758e-07)
(5.00351 9.58119e-08 -9.14985e-08)
(5.00352 7.60991e-08 -3.45907e-08)
(4.99993 1.42584e-08 -1.73618e-08)
(4.9994 -3.39459e-09 -1.1586e-08)
(4.80342 1.60077e-05 -7.943e-06)
(4.95006 1.70391e-05 -8.01162e-06)
(5.17811 1.40238e-05 -6.47137e-06)
(5.0446 7.43505e-06 -3.39892e-06)
(4.95409 1.72751e-06 -7.51254e-07)
(4.9806 1.23046e-07 -1.06685e-07)
(5.00383 1.47455e-07 -9.11554e-08)
(5.00385 1.20044e-07 -3.56982e-08)
(5.00026 2.15338e-08 -1.66236e-08)
(4.99973 -6.89527e-09 -1.06263e-08)
(4.80342 9.1818e-06 -7.9376e-06)
(4.95006 9.25965e-06 -8.01132e-06)
(5.17811 7.38635e-06 -6.48282e-06)
(5.0446 3.94692e-06 -3.40676e-06)
(4.95409 9.48252e-07 -7.50692e-07)
(4.9806 1.24561e-07 -1.05359e-07)
(5.00383 1.02869e-07 -9.49464e-08)
(5.00385 8.35754e-08 -3.86519e-08)
(5.00026 1.5275e-08 -1.64372e-08)
(4.99973 -7.39433e-09 -1.03873e-08)
(4.80342 5.86381e-06 -7.94734e-06)
(4.95006 6.74635e-06 -8.01065e-06)
(5.17811 5.59528e-06 -6.46645e-06)
(5.0446 3.18037e-06 -3.39564e-06)
(4.95409 9.46748e-07 -7.40872e-07)
(4.9806 1.60796e-07 -9.92252e-08)
(5.00383 7.12745e-08 -9.77621e-08)
(5.00385 6.51991e-08 -4.22635e-08)
(5.00026 1.37128e-08 -1.4795e-08)
(4.99973 -8.40907e-09 -8.98396e-09)
(4.80342 2.46737e-06 -7.93605e-06)
(4.95006 2.81324e-06 -8.01066e-06)
(5.17811 2.20207e-06 -6.47966e-06)
(5.0446 1.22297e-06 -3.41549e-06)
(4.95409 3.82322e-07 -7.50832e-07)
(4.9806 6.47348e-08 -1.0151e-07)
(5.00383 1.93139e-08 -1.03005e-07)
(5.00385 3.69133e-08 -4.66296e-08)
(5.00026 8.0556e-09 -1.39823e-08)
(4.99973 -8.66472e-09 -7.45402e-09)
(4.80342 -9.79921e-07 -7.94021e-06)
(4.95006 -1.01796e-06 -8.01567e-06)
(5.17811 -8.49372e-07 -6.47637e-06)
(5.0446 -3.93871e-07 -3.4083e-06)
(4.95409 1.67327e-08 -7.34374e-07)
(4.9806 3.52161e-08 -8.99629e-08)
(5.00383 -1.8279e-08 -1.05086e-07)
(5.00385 9.65274e-09 -4.92556e-08)
(5.00026 3.08314e-09 -1.07432e-08)
(4.99973 -8.10355e-09 -6.40737e-09)
(4.80342 -4.34943e-06 -7.9396e-06)
(4.95006 -4.96485e-06 -8.01928e-06)
(5.17811 -4.24261e-06 -6.47159e-06)
(5.0446 -2.3485e-06 -3.41954e-06)
(4.95409 -5.5688e-07 -7.47401e-07)
(4.9806 -5.84978e-08 -9.13866e-08)
(5.00383 -6.54523e-08 -1.07599e-07)
(5.00385 -2.16556e-08 -5.1208e-08)
(5.00026 -2.37093e-09 -9.26504e-09)
(4.99973 -6.37231e-09 -5.34001e-09)
(4.80342 -7.59455e-06 -7.94135e-06)
(4.95006 -7.55646e-06 -8.01088e-06)
(5.17811 -6.12761e-06 -6.47093e-06)
(5.0446 -3.20204e-06 -3.42212e-06)
(4.95409 -6.47907e-07 -7.43594e-07)
(4.9806 -5.55174e-08 -8.58489e-08)
(5.00383 -9.4646e-08 -1.07649e-07)
(5.00385 -4.7905e-08 -5.40643e-08)
(5.00026 -6.10535e-09 -8.33611e-09)
(4.99973 -3.07347e-09 -3.5431e-09)
(4.80342 -1.40006e-05 -7.94611e-06)
(4.95006 -1.49832e-05 -8.00495e-06)
(5.17811 -1.24787e-05 -6.46799e-06)
(5.0446 -6.54115e-06 -3.42428e-06)
(4.95409 -1.41318e-06 -7.42953e-07)
(4.9806 -6.23003e-08 -8.34365e-08)
(5.00383 -1.32097e-07 -1.09354e-07)
(5.00385 -9.23369e-08 -5.48066e-08)
(5.00026 -1.43922e-08 -7.23331e-09)
(4.99973 2.08754e-10 -4.64734e-09)
(4.80338 -9.39841e-06 -7.94581e-06)
(4.94993 -1.09273e-05 -8.0123e-06)
(5.17788 -9.42191e-06 -6.46757e-06)
(5.04432 -5.09911e-06 -3.42042e-06)
(4.95379 -1.24604e-06 -7.43585e-07)
(4.9803 -7.84768e-08 -8.22525e-08)
(5.00354 -8.53361e-08 -1.09147e-07)
(5.00355 -6.43794e-08 -5.64816e-08)
(4.99996 -1.13983e-08 -6.84171e-09)
(4.99943 8.55468e-10 -3.3731e-09)
(4.80338 1.05942e-05 -1.41942e-05)
(4.94992 1.21579e-05 -1.52562e-05)
(5.17786 1.03628e-05 -1.2698e-05)
(5.04429 5.64737e-06 -6.6708e-06)
(4.95376 1.43837e-06 -1.48358e-06)
(4.98028 1.17343e-07 -1.00312e-07)
(5.00351 9.63982e-08 -1.31472e-07)
(5.00352 7.54492e-08 -8.22403e-08)
(4.99993 1.37396e-08 -2.11044e-08)
(4.9994 -3.21922e-09 -5.04877e-09)
(4.80342 1.60124e-05 -1.41989e-05)
(4.95006 1.70366e-05 -1.52546e-05)
(5.17811 1.40133e-05 -1.26851e-05)
(5.0446 7.42654e-06 -6.66155e-06)
(4.95409 1.72423e-06 -1.47934e-06)
(4.9806 1.22128e-07 -9.76728e-08)
(5.00383 1.44643e-07 -1.32517e-07)
(5.00385 1.17188e-07 -8.4764e-08)
(5.00026 2.1072e-08 -2.13189e-08)
(4.99973 -6.50964e-09 -4.24512e-09)
(4.80342 9.18155e-06 -1.41883e-05)
(4.95006 9.25671e-06 -1.52629e-05)
(5.17811 7.38281e-06 -1.27093e-05)
(5.0446 3.94425e-06 -6.68189e-06)
(4.95409 9.52816e-07 -1.48744e-06)
(4.9806 1.28114e-07 -9.82554e-08)
(5.00383 9.99331e-08 -1.3442e-07)
(5.00385 8.0185e-08 -8.61865e-08)
(5.00026 1.61615e-08 -2.06217e-08)
(4.99973 -6.67461e-09 -3.88133e-09)
(4.80342 5.86691e-06 -1.42017e-05)
(4.95006 6.74494e-06 -1.52518e-05)
(5.17811 5.59814e-06 -1.26769e-05)
(5.0446 3.17511e-06 -6.65979e-06)
(4.95409 9.44269e-07 -1.4737e-06)
(4.9806 1.61019e-07 -9.26405e-08)
(5.00383 6.84908e-08 -1.35202e-07)
(5.00385 6.15422e-08 -8.82218e-08)
(5.00026 1.43771e-08 -1.998e-08)
(4.99973 -6.74361e-09 -3.20289e-09)
(4.80342 2.46939e-06 -1.41873e-05)
(4.95006 2.81512e-06 -1.52677e-05)