/*--------------------------------*- C++ -*----------------------------------*\
| =========                 |                                                 |
| \\      /  F ield         | OpenFOAM: The Open Source CFD Toolbox           |
|  \\    /   O peration     | Version:  1.7.x                                 |
|   \\  /    A nd           | Web:      www.OpenFOAM.com                      |
|    \\/     M anipulation  |                                                 |
\*---------------------------------------------------------------------------*/
FoamFile
{
    version     2.0;
    format      ascii;
    class       surfaceScalarField;
    location    "0.1";
    object      phi;
}
// * * * * * * * * * * * * * * * * * * * * * * * * * * * * * * * * * * * * * //

dimensions      [0 3 -1 0 0 0 0];

internalField   nonuniform List<scalar> 
2700
(
0.049999
5.34091e-07
4.74178e-07
0.0499985
2.58487e-07
2.38164e-07
0.0499983
8.99479e-08
8.18968e-08
0.0499983
9.58448e-09
8.00096e-09
0.0499983
-2.16376e-09
-2.21519e-09
0.0499983
-4.46499e-10
-4.67936e-10
0.0499983
3.21119e-10
2.94984e-10
0.0499983
2.88073e-10
2.80392e-10
0.0499983
-1.33623e-10
-1.33148e-10
-6.93399e-11
-6.86169e-11
0.0499997
3.96129e-07
4.74234e-07
0.0499995
2.01958e-07
2.37545e-07
0.0499994
7.18909e-08
8.20857e-08
0.0499994
1.05927e-08
8.25317e-09
0.0499994
-9.11158e-10
-2.204e-09
0.0499994
-3.17558e-10
-2.96117e-10
0.0499994
7.34407e-10
4.47797e-10
0.0499994
4.60527e-10
2.03659e-10
0.0499994
-5.44083e-10
-2.08599e-10
-4.08597e-10
-4.03272e-11
0.0499997
2.6794e-07
4.73746e-07
0.0499995
1.41561e-07
2.37894e-07
0.0499994
5.16264e-08
8.18852e-08
0.0499994
9.37657e-09
8.00202e-09
0.0499994
-1.73441e-10
-2.24655e-09
0.0499994
-4.73674e-10
-2.47405e-10
0.0499994
1.05931e-09
4.2212e-10
0.0499994
6.58222e-10
1.51317e-10
0.0499994
-9.12675e-10
-2.35108e-10
-7.42377e-10
-1.37452e-11
0.0499996
1.4555e-07
4.74732e-07
0.0499995
7.8231e-08
2.38551e-07
0.0499994
2.89817e-08
8.21284e-08
0.0499994
6.37687e-09
7.99289e-09
0.0499994
1.57572e-10
-2.20473e-09
0.0499994
-8.10626e-10
-2.07556e-10
0.0499994
1.20589e-09
4.6009e-10
0.0499994
7.88018e-10
1.7392e-10
0.0499994
-1.18907e-09
-2.87151e-10
-9.61014e-10
-1.00342e-10
0.0499996
2.69861e-08
4.74231e-07
0.0499995
1.45715e-08
2.37206e-07
0.0499994
5.84479e-09
8.18887e-08
0.0499994
2.71995e-09
7.80399e-09
0.0499994
2.7618e-10
-2.14354e-09
0.0499994
-1.11061e-09
-1.84531e-10
0.0499994
1.23704e-09
4.13093e-10
0.0499994
8.999e-10
1.81473e-10
0.0499994
-1.2821e-09
-2.74082e-10
-1.09193e-09
-9.79831e-11
0.0499996
-9.06267e-08
4.7407e-07
0.0499995
-5.10665e-08
2.38711e-07
0.0499994
-1.75232e-08
8.21294e-08
0.0499994
-1.17116e-09
7.79749e-09
0.0499994
2.97418e-10
-2.1186e-09
0.0499994
-1.31649e-09
-1.76578e-10
0.0499994
1.12127e-09
3.62421e-10
0.0499994
9.09193e-10
1.67264e-10
0.0499994
-1.20404e-09
-2.39033e-10
-1.07743e-09
-7.13504e-11
0.0499996
-2.1049e-07
4.74269e-07
0.0499995
-1.14416e-07
2.37477e-07
0.0499994
-4.04447e-08
8.20075e-08
0.0499994
-4.5013e-09
7.78297e-09
0.0499994
4.97398e-10
-2.10497e-09
0.0499994
-1.38202e-09
-2.29905e-10
0.0499994
8.66399e-10
3.05138e-10
0.0499994
8.39516e-10
1.52764e-10
0.0499994
-1.00323e-09
-2.13362e-10
-9.5918e-10
-4.16943e-11
0.0499997
-3.3559e-07
4.74279e-07
0.0499995
-1.77121e-07
2.37788e-07
0.0499994
-6.16773e-08
8.21923e-08
0.0499994
-6.4638e-09
8.0148e-09
0.0499994
1.12274e-09
-1.99109e-09
0.0499994
-1.11925e-09
-2.25277e-10
0.0499994
5.46111e-10
2.39512e-10
0.0499994
6.45273e-10
1.98638e-10
0.0499994
-7.45338e-10
-1.4792e-10
-7.85448e-10
-2.15442e-11
0.0499997
-4.6893e-07
4.74002e-07
0.0499995
-2.35217e-07
2.37617e-07
0.0499994
-8.09131e-08
8.19668e-08
0.0499994
-6.94871e-09
7.9963e-09
0.0499994
2.21405e-09
-1.93926e-09
0.0499994
-5.04277e-10
-2.7883e-10
0.0499994
1.40319e-10
1.90212e-10
0.0499994
3.92246e-10
1.71826e-10
0.0499994
-3.96464e-10
-1.16767e-10
-5.55622e-10
2.7895e-11
0.0499991
4.7419e-07
0.0499986
2.37702e-07
0.0499984
8.18588e-08
0.0499984
7.85996e-09
0.0499984
-1.9318e-09
0.0499984
-2.89877e-10
0.0499984
1.21487e-10
0.0499984
2.00499e-10
0.0499984
-6.57531e-11
4.22118e-11
0.0499996
5.34163e-07
3.46169e-07
0.0499994
2.57892e-07
1.82159e-07
0.0499993
9.01409e-08
6.40695e-08
0.0499993
9.82082e-09
8.57111e-09
0.0499993
-2.14734e-09
-1.18476e-09
0.0499993
-2.74643e-10
-3.85186e-10
0.0499993
4.73934e-10
6.99165e-10
0.0499993
2.11448e-10
4.49865e-10
0.0499993
-2.09136e-10
-5.44885e-10
-4.07851e-11
-4.08352e-10
0.0500003
3.96216e-07
3.46249e-07
0.0500004
2.01531e-07
1.81767e-07
0.0500004
7.21009e-08
6.42932e-08
0.0500004
1.07781e-08
8.77896e-09
0.0500004
-9.12012e-10
-1.18354e-09
0.0500004
-2.371e-10
-3.0055e-10
0.0500004
8.47681e-10
8.13064e-10
0.0500004
4.30096e-10
4.19562e-10
0.0500004
-6.5445e-10
-6.55328e-10
-4.44296e-10
-4.44534e-10
0.0500003
2.67456e-07
3.45658e-07
0.0500004
1.41379e-07
1.82492e-07
0.0500004
5.18718e-08
6.38954e-08
0.0500004
9.42714e-09
8.33399e-09
0.0500004
-1.91285e-10
-1.18638e-09
0.0500004
-4.54493e-10
-3.04088e-10
0.0500004
1.09805e-09
7.2638e-10
0.0500004
6.80478e-10
3.90266e-10
0.0500004
-1.01614e-09
-6.31211e-10
-7.98616e-10
-4.08048e-10
0.0500003
1.45376e-07
3.46692e-07
0.0500004
7.86653e-08
1.83476e-07
0.0500004
2.92417e-08
6.39779e-08
0.0500004
6.31736e-09
8.45111e-09
0.0500004
1.98347e-10
-1.05358e-09
0.0500004
-7.61862e-10
-2.87532e-10
0.0500004
1.24696e-09
7.17905e-10
0.0500004
8.45993e-10
4.37032e-10
0.0500004
-1.22514e-09
-6.49167e-10
-1.00488e-09
-4.56361e-10
0.0500002
2.70078e-08
3.45991e-07
0.0500004
1.43459e-08
1.82282e-07
0.0500004
5.74281e-09
6.3663e-08
0.0500004
2.67e-09
8.02691e-09
0.0500004
3.15866e-10
-1.01694e-09
0.0500004
-1.09631e-09
-3.25125e-10
0.0500004
1.24233e-09
6.03115e-10
0.0500004
9.08965e-10
4.63906e-10
0.0500004
-1.30345e-09
-5.365e-10
-1.06264e-09
-4.07991e-10
0.0500002
-9.09905e-08
3.46532e-07
0.0500004
-5.03984e-08
1.8361e-07
0.0500004
-1.76744e-08
6.38584e-08
0.0500004
-1.11418e-09
7.97462e-09
0.0500004
2.88818e-10
-1.01398e-09
0.0500004
-1.41194e-09
-3.52104e-10
0.0500004
1.07126e-09
4.47775e-10
0.0500004
9.28644e-10
4.72524e-10
0.0500004
-1.17062e-09
-4.52071e-10
-1.03e-09
-3.50549e-10
0.0500002
-2.10904e-07
3.46233e-07
0.0500004
-1.1412e-07
1.81962e-07
0.0500004
-4.0171e-08
6.33898e-08
0.0500004
-4.18831e-09
8.05833e-09
0.0500004
5.59266e-10
-8.849e-10
0.0500004
-1.46857e-09
-3.98853e-10
0.0500004
7.95687e-10
2.91513e-10
0.0500004
8.42429e-10
5.00828e-10
0.0500004
-9.40034e-10
-3.53665e-10
-9.15356e-10
-3.31321e-10
0.0500003
-3.35873e-07
3.46269e-07
0.0500004
-1.76336e-07
1.8305e-07
0.0500004
-6.14683e-08
6.37869e-08
0.0500004
-6.32011e-09
8.21017e-09
0.0500004
1.22612e-09
-7.28714e-10
0.0500004
-1.10237e-09
-4.00329e-10
0.0500004
4.72454e-10
1.29945e-10
0.0500004
6.48197e-10
5.11295e-10
0.0500004
-6.30313e-10
-2.67203e-10
-7.23072e-10
-2.90402e-10
0.0500003
-4.68965e-07
3.46008e-07
0.0500004
-2.34149e-07
1.82615e-07
0.0500004
-8.06344e-08
6.37903e-08
0.0500004
-6.92277e-09
8.11063e-09
0.0500004
2.19818e-09
-6.35091e-10
0.0500004
-5.62773e-10
-4.25038e-10
0.0500004
8.88673e-11
2.16007e-11
0.0500004
4.02782e-10
4.87466e-10
0.0500004
-3.51474e-10
-1.88783e-10
-5.28029e-10
-2.39441e-10
0.0499997
3.45986e-07
0.0499995
1.83041e-07
0.0499994
6.40746e-08
0.0499994
8.20048e-09
0.0499994
-5.2261e-10
0.0499994
-3.29532e-10
0.0499994
-4.48799e-11
0.0499994
4.74464e-10
0.0499994
-1.45857e-10
-2.20273e-10
0.0499996
5.33656e-07
2.26666e-07
0.0499994
2.58221e-07
1.23073e-07
0.0499993
8.99326e-08
4.4243e-08
0.0499993
9.56215e-09
7.16675e-09
0.0499993
-2.20054e-09
-5.94252e-10
0.0499993
-2.2937e-10
-5.74306e-10
0.0499993
4.48326e-10
1.01798e-09
0.0499993
1.59331e-10
6.45408e-10
0.0499993
-2.35641e-10
-9.14434e-10
-1.43777e-11
-7.4265e-10
0.0500003
3.95574e-07
2.26194e-07
0.0500004
2.02275e-07
1.22925e-07
0.0500004
7.17302e-08
4.44768e-08
0.0500004
1.03442e-08
7.22229e-09
0.0500004
-9.24041e-10
-6.16802e-10
0.0500004
-2.38939e-10
-5.52962e-10
0.0500004
7.61159e-10
1.05705e-09
0.0500004
4.01167e-10
6.67732e-10
0.0500004
-6.30541e-10
-1.01795e-09
-4.07991e-10
-7.9855e-10
0.0500002
2.67019e-07
2.25786e-07
0.0500004
1.41896e-07
1.23394e-07
0.0500004
5.1287e-08
4.3875e-08
0.0500004
8.96159e-09
6.73101e-09
0.0500004
-9.21561e-11
-5.18582e-10
0.0500004
-4.37119e-10
-5.42679e-10
0.0500004
9.77395e-10
9.35671e-10
0.0500004
6.46807e-10
6.33805e-10
0.0500004
-9.56556e-10
-9.58491e-10
-7.53311e-10
-7.53473e-10
0.0500002
1.45638e-07
2.26227e-07
0.0500004
7.96564e-08
1.23926e-07
0.0500004
2.89607e-08
4.37318e-08
0.0500004
6.10446e-09
6.69777e-09
0.0500004
3.11186e-10
-3.93478e-10
0.0500004
-7.32335e-10
-5.29496e-10
0.0500004
1.09581e-09
8.63799e-10
0.0500004
7.89814e-10
6.70074e-10
0.0500004
-1.1483e-09
-8.97191e-10
-9.80834e-10
-7.12162e-10
0.0500002
2.73397e-08
2.262e-07
0.0500004
1.42674e-08
1.23543e-07
0.0500004
5.84783e-09
4.37046e-08
0.0500004
2.50318e-09
6.58112e-09
0.0500004
3.68545e-10
-3.37611e-10
0.0500004
-1.10228e-09
-5.48653e-10
0.0500004
1.05456e-09
6.90814e-10
0.0500004
9.02367e-10
6.78515e-10
0.0500004
-1.14677e-09
-7.49194e-10
-1.04166e-09
-6.71877e-10
0.0500002
-8.99564e-08
2.26252e-07
0.0500004
-5.02891e-08
1.23656e-07
0.0500004
-1.73896e-08
4.37186e-08
0.0500004
-1.05944e-09
6.58545e-09
0.0500004
4.30344e-10
-1.96956e-10
0.0500004
-1.40753e-09
-5.73111e-10
0.0500004
9.19323e-10
4.3974e-10
0.0500004
9.19203e-10
7.05444e-10
0.0500004
-1.07939e-09
-6.01068e-10
-1.00207e-09
-6.30004e-10
0.0500002
-2.10325e-07
2.2637e-07
0.0500004
-1.15745e-07
1.23728e-07
0.0500004
-4.04452e-08
4.38782e-08
0.0500004
-4.23937e-09
6.70347e-09
0.0500004
6.8496e-10
1.84246e-11
0.0500004
-1.42903e-09
-5.90333e-10
0.0500004
6.79028e-10
2.1359e-10
0.0500004
8.28538e-10
7.09063e-10
0.0500004
-8.85565e-10
-4.60964e-10
-8.9356e-10
-5.45519e-10
0.0500002
-3.35818e-07
2.26357e-07
0.0500004
-1.78011e-07
1.2475e-07
0.0500004
-6.21528e-08
4.41552e-08
0.0500004
-6.71435e-09
6.55885e-09
0.0500004
1.24594e-09
1.71286e-10
0.0500004
-1.1377e-09
-6.02979e-10
0.0500004
3.59284e-10
-1.56139e-11
0.0500004
6.35781e-10
7.35986e-10
0.0500004
-5.96468e-10
-3.6421e-10
-7.00296e-10
-5.21643e-10
0.0500003
-4.68941e-07
2.2628e-07
0.0500004
-2.36165e-07
1.23414e-07
0.0500004
-8.15335e-08
4.36219e-08
0.0500004
-7.18723e-09
6.31079e-09
0.0500004
2.3368e-09
3.72652e-10
0.0500004
-5.20461e-10
-5.34568e-10
0.0500004
3.17195e-11
-1.40107e-10
0.0500004
3.99099e-10
7.10152e-10
0.0500004
-3.15319e-10
-2.31697e-10
-5.20787e-10
-4.26647e-10
0.0499997
2.26439e-07
0.0499995
1.22772e-07
0.0499994
4.3293e-08
0.0499994
6.19344e-09
0.0499994
4.01952e-10
0.0499994
-5.05674e-10
0.0499994
-2.33707e-10
0.0499994
6.91934e-10
0.0499994
-2.13135e-10
-4.49937e-10
0.0499996
5.34658e-07
1.11887e-07
0.0499994
2.58904e-07
6.15935e-08
0.0499993
9.02036e-08
2.22127e-08
0.0499993
9.56997e-09
4.16271e-09
0.0499993
-2.15071e-09
-3.49612e-10
0.0499993
-1.85822e-10
-9.33905e-10
0.0499993
4.86169e-10
1.16113e-09
0.0499993
1.81667e-10
7.7394e-10
0.0499993
-2.87791e-10
-1.19191e-09
-1.00987e-10
-9.61623e-10
0.0500003
3.9663e-07
1.11755e-07
0.0500004
2.03243e-07
6.21314e-08
0.0500004
7.18206e-08
2.24836e-08
0.0500004
1.05012e-08
4.08429e-09
0.0500004
-7.96087e-10
-2.98955e-10
0.0500004
-2.19097e-10
-8.81483e-10
0.0500004
7.53001e-10
1.20309e-09
0.0500004
4.4779e-10
8.32387e-10
0.0500004
-6.48354e-10
-1.22747e-09
-4.56424e-10
-1.00539e-09
0.0500002
2.67261e-07
1.12252e-07
0.0500004
1.42349e-07
6.30621e-08
0.0500004
5.11539e-08
2.21745e-08
0.0500004
8.93675e-09
3.8842e-09
0.0500004
2.18818e-11
-2.04792e-10
0.0500004
-4.27365e-10
-8.58566e-10
0.0500004
9.05333e-10
1.05064e-09
0.0500004
6.82922e-10
7.7595e-10
0.0500004
-8.95305e-10
-1.15078e-09
-7.11945e-10
-9.81246e-10
0.0500002
1.45595e-07
1.11994e-07
0.0500004
7.95292e-08
6.28972e-08
0.0500004
2.86388e-08
2.19354e-08
0.0500004
5.89619e-09
3.74187e-09
0.0500004
3.67708e-10
-1.39575e-10
0.0500004
-7.8753e-10
-9.11625e-10
0.0500004
9.38099e-10
8.93668e-10
0.0500004
8.51397e-10
8.3747e-10
0.0500004
-1.01158e-09
-1.0142e-09
-8.84603e-10
-8.85158e-10
0.0500002
2.72132e-08
1.11771e-07
0.0500004
1.46564e-08
6.2302e-08
0.0500004
5.77825e-09
2.21623e-08
0.0500004
2.42251e-09
3.79179e-09
0.0500004
4.19523e-10
-2.41059e-11
0.0500004
-1.22329e-09
-9.26109e-10
0.0500004
8.60621e-10
6.6197e-10
0.0500004
9.51446e-10
8.56578e-10
0.0500004
-1.0245e-09
-8.70143e-10
-9.65564e-10
-8.5955e-10
0.0500002
-9.06154e-08
1.11808e-07
0.0500004
-5.04244e-08
6.19235e-08
0.0500004
-1.76723e-08
2.24885e-08
0.0500004
-9.59548e-10
3.8116e-09
0.0500004
6.36458e-10
2.36644e-10
0.0500004
-1.45922e-09
-9.18177e-10
0.0500004
7.11181e-10
3.93575e-10
0.0500004
9.42295e-10
8.94852e-10
0.0500004
-9.51897e-10
-7.12923e-10
-9.80463e-10
-7.92729e-10
0.0500002
-2.10969e-07
1.12372e-07
0.0500004
-1.14785e-07
6.28484e-08
0.0500004
-4.003e-08
2.18932e-08
0.0500004
-4.2305e-09
3.64422e-09
0.0500004
8.85923e-10
4.98209e-10
0.0500004
-1.43784e-09
-8.97059e-10
0.0500004
4.84988e-10
1.04362e-10
0.0500004
8.375e-10
8.55461e-10
0.0500004
-7.27994e-10
-5.43413e-10
-8.5342e-10
-6.96065e-10
0.0500002
-3.35929e-07
1.11863e-07
0.0500004
-1.75008e-07
6.15855e-08
0.0500004
-6.05759e-08
2.17408e-08
0.0500004
-6.40941e-09
3.45481e-09
0.0500004
1.49814e-09
7.13761e-10
0.0500004
-1.07575e-09
-8.78719e-10
0.0500004
2.06432e-10
-1.53633e-10
0.0500004
6.13532e-10
8.87308e-10
0.0500004
-4.90687e-10
-4.03404e-10
-6.71981e-10
-6.75032e-10
0.0500002
-4.6856e-07
1.11477e-07
0.0500004
-2.3346e-07
6.25047e-08
0.0500004
-7.99956e-08
2.20333e-08
0.0500004
-7.0257e-09
3.20074e-09
0.0500004
2.46471e-09
9.27099e-10
0.0500004
-4.55675e-10
-7.7858e-10
0.0500004
-2.81496e-11
-3.1889e-10
0.0500004
3.48809e-10
8.6329e-10
0.0500004
-2.80562e-10
-2.24769e-10
-4.80278e-10
-5.70023e-10
0.0499996
1.12094e-07
0.0499995
6.33395e-08
0.0499994
2.26827e-08
0.0499994
3.22425e-09
0.0499994
9.97815e-10
0.0499994
-7.1776e-10
0.0499994
-3.62226e-10
0.0499994
8.22701e-10
0.0499994
-2.60125e-10
-5.98253e-10
0.0499996
5.33944e-07
3.13219e-10
0.0499994
2.57671e-07
7.8366e-11
0.0499993
8.99326e-08
-8.06089e-11
0.0499993
9.36195e-09
6.68633e-10
0.0499993
-2.09278e-09
-2.50741e-10
0.0499993
-1.63967e-10
-1.24207e-09
0.0499993
4.39744e-10
1.19246e-09
0.0499993
1.89353e-10
8.86002e-10
0.0499993
-2.74453e-10
-1.28466e-09
-9.86536e-11
-1.09252e-09
0.0500002
3.95719e-07
1.84629e-10
0.0500004
2.021e-07
2.07157e-10
0.0500004
7.14477e-08
-1.58936e-10
0.0500004
1.00521e-08
5.64921e-10
0.0500004
-7.55161e-10
-1.99487e-10
0.0500004
-2.55547e-10
-1.22481e-09
0.0500004
6.37904e-10
1.19884e-09
0.0500004
4.74832e-10
8.95362e-10
0.0500004
-5.35637e-10
-1.30685e-09
-4.08097e-10
-1.06309e-09
0.0500002
2.67596e-07
3.78771e-10
0.0500004
1.4186e-07
1.64333e-10
0.0500004
5.10414e-08
-9.56944e-11
0.0500004
8.80284e-09
4.39847e-10
0.0500004
7.23394e-11
-1.63366e-10
0.0500004
-4.45547e-10
-1.23498e-09
0.0500004
7.32141e-10
1.01027e-09
0.0500004
6.91486e-10
8.8827e-10
0.0500004
-7.47411e-10
-1.14983e-09
-6.71867e-10
-1.0423e-09
0.0500002
1.45426e-07
5.10282e-10
0.0500004
7.8937e-08
1.24392e-10
0.0500004
2.89795e-08
-2.2153e-10
0.0500004
6.00121e-09
4.3911e-10
0.0500004
4.37283e-10
-7.56494e-11
0.0500004
-8.02882e-10
-1.35417e-09
0.0500004
7.05984e-10
8.16666e-10
0.0500004
8.70627e-10
9.37423e-10
0.0500004
-8.67457e-10
-1.02746e-09
-8.5903e-10
-9.66033e-10
0.0500002
2.68373e-08
-2.4158e-10
0.0500004
1.43737e-08
-4.82614e-10
0.0500004
5.91479e-09
-1.68294e-10
0.0500004
2.59967e-09
5.8256e-10
0.0500004
7.45616e-10
2.21534e-10
0.0500004
-1.15808e-09
-1.28941e-09
0.0500004
6.12783e-10
5.67893e-10
0.0500004
9.68655e-10
9.54708e-10
0.0500004
-8.73741e-10
-8.76674e-10
-9.44132e-10
-9.44587e-10
0.0500002
-9.08845e-08
1.40699e-10
0.0500004
-5.10796e-08
-1.7741e-10
0.0500004
-1.73782e-08
-1.07104e-10
0.0500004
-1.07746e-09
3.17568e-10
0.0500004
9.64207e-10
5.02511e-10
0.0500004
-1.3478e-09
-1.21977e-09
0.0500004
4.55143e-10
2.66417e-10
0.0500004
9.45477e-10
9.52506e-10
0.0500004
-7.44797e-10
-6.73571e-10
-9.10734e-10
-8.13623e-10
0.0500002
-2.10352e-07
1.4602e-10
0.0500004
-1.15085e-07
9.61034e-10
0.0500004
-4.04473e-08
4.71766e-12
0.0500004
-4.76904e-09
1.42468e-10
0.0500004
1.01053e-09
7.93114e-10
0.0500004
-1.40113e-09
-1.19905e-09
0.0500004
2.47512e-10
-6.13861e-11
0.0500004
7.67927e-10
9.52883e-10
0.0500004
-6.1487e-10
-4.96249e-10
-7.42882e-10
-8.15114e-10
0.0500002
-3.35819e-07
3.71625e-10
0.0500004
-1.77389e-07
-2.69838e-10
0.0500004
-6.20849e-08
-3.19177e-10
0.0500004
-7.00464e-09
-2.58192e-10
0.0500004
1.61147e-09
9.62544e-10
0.0500004
-1.02335e-09
-1.15806e-09
0.0500004
1.56513e-11
-2.63152e-10
0.0500004
6.09042e-10
9.23842e-10
0.0500004
-4.15695e-10
-3.62706e-10
-6.46154e-10
-6.9521e-10
0.0500002
-4.69485e-07
2.40618e-10
0.0500004
-2.35947e-07
6.50422e-11
0.0500004
-8.13991e-08
-2.37174e-10
0.0500004
-7.28172e-09
-3.45985e-10
0.0500004
2.57146e-09
1.22608e-09
0.0500004
-4.20065e-10
-9.9989e-10
0.0500004
-1.54335e-10
-4.20771e-10
0.0500004
3.32673e-10
9.35151e-10
0.0500004
-2.48165e-10
-2.80497e-10
-4.82657e-10
-6.87636e-10
0.0499996
4.02673e-10
0.0499995
-7.47208e-11
0.0499994
-4.8534e-10
0.0499994
-4.88551e-10
0.0499994
1.2623e-09
0.0499994
-8.79381e-10
0.0499994
-4.75487e-10
0.0499994
8.42808e-10
0.0499994
-2.22833e-10
-6.40594e-10
0.0499996
5.34064e-07
-1.11264e-07
0.0499994
2.58978e-07
-6.29073e-08
0.0499993
9.01981e-08
-2.24762e-08
0.0499993
9.35772e-09
-2.92627e-09
0.0499993
-2.07292e-09
-1.90977e-10
0.0499993
-1.5695e-10
-1.44045e-09
0.0499993
3.88434e-10
1.08017e-09
0.0499993
1.7511e-10
8.96591e-10
0.0499993
-2.39938e-10
-1.20702e-09
-7.18671e-11
-1.07794e-09
0.0500002
3.96606e-07
-1.11744e-07
0.0500004
2.0347e-07
-6.2087e-08
0.0500004
7.1737e-08
-2.26262e-08
0.0500004
9.99368e-09
-2.95177e-09
0.0500004
-7.48911e-10
-1.95993e-10
0.0500004
-2.83414e-10
-1.536e-09
0.0500004
4.82994e-10
1.03107e-09
0.0500004
4.83629e-10
9.15961e-10
0.0500004
-4.51159e-10
-1.17348e-09
-3.50506e-10
-1.03079e-09
0.0500002
2.67758e-07
-1.10907e-07
0.0500004
1.42362e-07
-6.1962e-08
0.0500004
5.11745e-08
-2.23469e-08
0.0500004
8.81331e-09
-2.85718e-09
0.0500004
1.97877e-10
-4.18904e-11
0.0500004
-4.70746e-10
-1.53271e-09
0.0500004
4.81495e-10
8.78607e-10
0.0500004
7.18413e-10
9.06517e-10
0.0500004
-5.99241e-10
-1.08215e-09
-6.29753e-10
-1.00274e-09
0.0500002
1.45848e-07
-1.11351e-07
0.0500004
7.85722e-08
-6.21823e-08
0.0500004
2.92701e-08
-2.26513e-08
0.0500004
6.07935e-09
-2.70282e-09
0.0500004
7.46448e-10
1.41544e-10
0.0500004
-7.93872e-10
-1.58368e-09
0.0500004
4.39584e-10
6.7025e-10
0.0500004
9.08782e-10
9.29573e-10
0.0500004
-7.10245e-10
-9.54625e-10
-7.92315e-10
-9.81087e-10
0.0500002
2.71672e-08
-1.11603e-07
0.0500004
1.36586e-08
-6.28307e-08
0.0500004
5.65463e-09
-2.22803e-08
0.0500004
2.42274e-09
-2.80537e-09
0.0500004
1.03453e-09
4.71841e-10
0.0500004
-1.08935e-09
-1.47115e-09
0.0500004
3.11601e-10
4.14773e-10
0.0500004
9.6661e-10
9.32631e-10
0.0500004
-6.70648e-10
-7.47607e-10
-8.13122e-10
-9.11296e-10
0.0500002
-9.07911e-08
-1.11623e-07
0.0500004
-5.06973e-08
-6.25856e-08
0.0500004
-1.74786e-08
-2.24573e-08
0.0500004
-1.5831e-09
-3.35849e-09
0.0500004
1.09156e-09
6.12075e-10
0.0500004
-1.34117e-09
-1.46603e-09
0.0500004
1.35323e-10
9.47385e-11
0.0500004
9.13556e-10
9.00598e-10
0.0500004
-5.87262e-10
-5.90156e-10
-7.74061e-10
-7.74436e-10
0.0500002
-2.10757e-07
-1.11293e-07
0.0500004
-1.14446e-07
-6.20467e-08
0.0500004
-4.02201e-08
-2.22689e-08
0.0500004
-4.79031e-09
-3.51591e-09
0.0500004
1.34087e-09
9.54475e-10
0.0500004
-1.29248e-09
-1.3955e-09
0.0500004
-2.39013e-11
-1.68805e-10
0.0500004
7.93033e-10
9.2079e-10
0.0500004
-4.65486e-10
-4.73348e-10
-7.32133e-10
-8.00742e-10
0.0500002
-3.35997e-07
-1.11068e-07
0.0500004
-1.76243e-07
-6.32872e-08
0.0500004
-6.12378e-08
-2.3218e-08
0.0500004
-6.83644e-09
-3.77341e-09
0.0500004
1.92372e-09
1.19809e-09
0.0500004
-9.10356e-10
-1.2227e-09
0.0500004
-1.30551e-10
-3.31087e-10
0.0500004
6.05306e-10
8.68273e-10
0.0500004
-2.89329e-10
-3.27065e-10
-6.22398e-10
-6.7603e-10
0.0500002
-4.69517e-07
-1.11141e-07
0.0500004
-2.34899e-07
-6.17984e-08
0.0500004
-8.0538e-08
-2.30872e-08
0.0500004
-7.21535e-09
-3.85387e-09
0.0500004
2.66629e-09
1.50925e-09
0.0500004
-3.02944e-10
-1.01049e-09
0.0500004
-2.02027e-10
-4.57354e-10
0.0500004
3.07517e-10
8.58542e-10
0.0500004
-1.45081e-10
-2.65238e-10
-4.22752e-10
-7.03304e-10
0.0499996
-1.1177e-07
0.0499995
-6.19889e-08
0.0499994
-2.27097e-08
0.0499994
-4.02221e-09
0.0499994
1.34769e-09
0.0499994
-9.59189e-10
0.0499994
-5.23203e-10
0.0499994
7.5363e-10
0.0499994
-1.73687e-10
-6.07684e-10
0.0499996
5.34236e-07
-2.25566e-07
0.0499994
2.57797e-07
-1.23445e-07
0.0499993
9.00735e-08
-4.42809e-08
0.0499993
9.38808e-09
-5.92241e-09
0.0499993
-2.05304e-09
9.0976e-11
0.0499993
-2.0898e-10
-1.48755e-09
0.0499993
3.31147e-10
8.32511e-10
0.0499993
1.60552e-10
8.2881e-10
0.0499993
-2.14113e-10
-1.00577e-09
-4.25532e-11
-9.59846e-10
0.0500003
3.96238e-07
-2.26048e-07
0.0500004
2.01798e-07
-1.23065e-07
0.0500004
7.12348e-08
-4.40065e-08
0.0500004
1.00755e-08
-5.62578e-09
0.0500004
-6.15561e-10
1.54423e-10
0.0500004
-3.28901e-10
-1.57582e-09
0.0500004
3.25985e-10
7.62662e-10
0.0500004
5.11727e-10
8.31868e-10
0.0500004
-3.52953e-10
-9.42301e-10
-3.31288e-10
-9.15818e-10
0.0500002
2.67448e-07
-2.25415e-07
0.0500004
1.42348e-07
-1.24711e-07
0.0500004
5.13044e-08
-4.42819e-08
0.0500004
8.89787e-09
-5.64867e-09
0.0500004
4.53843e-10
2.81525e-10
0.0500004
-4.87275e-10
-1.53462e-09
0.0500004
2.56335e-10
6.43663e-10
0.0500004
7.22145e-10
8.1793e-10
0.0500004
-4.59027e-10
-8.88022e-10
-5.45261e-10
-8.94205e-10
0.0500002
1.45891e-07
-2.2614e-07
0.0500004
7.96307e-08
-1.23777e-07
0.0500004
2.86864e-08
-4.38928e-08
0.0500004
5.88995e-09
-5.6625e-09
0.0500004
1.00385e-09
4.8849e-10
0.0500004
-7.73627e-10
-1.54362e-09
0.0500004
1.49295e-10
4.51969e-10
0.0500004
8.69473e-10
8.26986e-10
0.0500004
-5.4087e-10
-7.30608e-10
-6.95625e-10
-8.53983e-10
0.0500002
2.69881e-08
-2.2555e-07
0.0500004
1.54143e-08
-1.24e-07
0.0500004
5.98215e-09
-4.42327e-08
0.0500004
2.30533e-09
-6.20516e-09
0.0500004
1.29994e-09
6.19431e-10
0.0500004
-1.06851e-09
-1.50626e-09
0.0500004
-1.48377e-11
2.11603e-10
0.0500004
9.67033e-10
7.57444e-10
0.0500004
-4.93358e-10
-6.17271e-10
-8.14338e-10
-7.4345e-10
0.0500002
-9.06049e-08
-2.25937e-07
0.0500004
-5.01205e-08
-1.23595e-07
0.0500004
-1.72599e-08
-4.40987e-08
0.0500004
-1.60884e-09
-6.21528e-09
0.0500004
1.41751e-09
9.49706e-10
0.0500004
-1.2711e-09
-1.39882e-09
0.0500004
-1.30454e-10
-5.30662e-11
0.0500004
9.33732e-10
7.82507e-10
0.0500004
-4.70304e-10
-4.6791e-10
-8.00257e-10
-7.32956e-10
0.0500002
-2.10435e-07
-2.25632e-07
0.0500004
-1.14418e-07
-1.23399e-07
0.0500004
-4.02365e-08
-4.40745e-08
0.0500004
-4.98776e-09
-6.4024e-09
0.0500004
1.72526e-09
1.32299e-09
0.0500004
-1.09997e-09
-1.20483e-09
0.0500004
-1.8722e-10
-2.20184e-10
0.0500004
7.9789e-10
7.87348e-10
0.0500004
-3.21528e-10
-3.24071e-10
-6.9977e-10
-7.00322e-10
0.0500002
-3.35624e-07
-2.25595e-07
0.0500004
-1.76755e-07
-1.24074e-07
0.0500004
-6.19044e-08
-4.45785e-08
0.0500004
-7.29165e-09
-6.48759e-09
0.0500004
2.03092e-09
1.49432e-09
0.0500004
-7.57974e-10
-1.05634e-09
0.0500004
-2.58896e-10
-3.53232e-10
0.0500004
5.53923e-10
6.87993e-10
0.0500004
-1.99596e-10
-1.92225e-10
-5.72802e-10
-5.63856e-10
0.0500002
-4.68459e-07
-2.26044e-07
0.0500004
-2.34611e-07
-1.23449e-07
0.0500004
-8.10353e-08
-4.47726e-08
0.0500004
-7.42958e-09
-6.78357e-09
0.0500004
2.68591e-09
1.55106e-09
0.0500004
-2.10128e-10
-8.71604e-10
0.0500004
-2.87828e-10
-4.75219e-10
0.0500004
2.36501e-10
6.70748e-10
0.0500004
-8.89736e-11
-1.92071e-10
-3.83019e-10
-6.44786e-10
0.0499996
-2.25567e-07
0.0499995
-1.23232e-07
0.0499994
-4.44199e-08
0.0499994
-6.73491e-09
0.0499994
1.45667e-09
0.0499994
-7.74708e-10
0.0499994
-4.81849e-10
0.0499994
5.67878e-10
0.0499994
-9.99766e-11
-5.18703e-10
0.0499996
5.3422e-07
-3.45439e-07
0.0499994
2.581e-07
-1.83186e-07
0.0499993
9.02568e-08
-6.42975e-08
0.0499993
9.59202e-09
-7.44956e-09
0.0499993
-1.94911e-09
8.38225e-10
0.0499993
-2.0427e-10
-1.19633e-09
0.0499993
2.64786e-10
5.22663e-10
0.0499993
2.06797e-10
6.3771e-10
0.0499993
-1.48409e-10
-7.47215e-10
-2.18592e-11
-7.85852e-10
0.0500003
3.96262e-07
-3.45781e-07
0.0500004
2.02885e-07
-1.82404e-07
0.0500004
7.16286e-08
-6.40843e-08
0.0500004
1.02227e-08
-7.30781e-09
0.0500004
-4.69267e-10
9.29751e-10
0.0500004
-3.3268e-10
-1.17948e-09
0.0500004
1.66327e-10
4.46164e-10
0.0500004
5.22069e-10
6.40377e-10
0.0500004
-2.66646e-10
-6.32075e-10
-2.90755e-10
-7.23356e-10
0.0500002
2.6761e-07
-3.45595e-07
0.0500004
1.43303e-07
-1.84057e-07
0.0500004
5.16002e-08
-6.47924e-08
0.0500004
8.79163e-09
-7.71048e-09
0.0500004
5.72371e-10
9.68855e-10
0.0500004
-5.00954e-10
-1.21397e-09
0.0500004
2.27159e-11
3.37821e-10
0.0500004
7.4937e-10
6.28427e-10
0.0500004
-3.62307e-10
-5.98379e-10
-5.213e-10
-7.00439e-10
0.0500002
1.45611e-07
-3.45952e-07
0.0500004
7.83246e-08
-1.81114e-07
0.0500004
2.84919e-08
-6.31619e-08
0.0500004
5.66334e-09
-7.38188e-09
0.0500004
1.19942e-09
1.2137e-09
0.0500004
-7.55874e-10
-1.15263e-09
0.0500004
-1.12092e-10
1.82659e-10
0.0500004
9.01305e-10
6.05622e-10
0.0500004
-4.00679e-10
-4.92541e-10
-6.74519e-10
-6.72429e-10
0.0500002
2.72533e-08
-3.45672e-07
0.0500004
1.43631e-08
-1.83539e-07
0.0500004
5.75875e-09
-6.47959e-08
0.0500004
1.80592e-09
-8.01547e-09
0.0500004
1.4738e-09
1.32568e-09
0.0500004
-1.02695e-09
-1.09995e-09
0.0500004
-2.20298e-10
-1.15863e-11
0.0500004
9.37694e-10
6.01395e-10
0.0500004
-3.5972e-10
-4.17433e-10
-6.9472e-10
-6.46419e-10
0.0500002
-9.0244e-08
-3.4598e-07
0.0500004
-5.13909e-08
-1.82302e-07
0.0500004
-1.82161e-08
-6.38079e-08
0.0500004
-1.98213e-09
-7.82082e-09
0.0500004
1.6806e-09
1.63745e-09
0.0500004
-1.09819e-09
-9.86929e-10
0.0500004
-2.90816e-10
-1.52193e-10
0.0500004
8.80981e-10
5.97465e-10
0.0500004
-3.24132e-10
-2.91355e-10
-6.75341e-10
-6.22866e-10
0.0500002
-2.10373e-07
-3.45579e-07
0.0500004
-1.14995e-07
-1.82774e-07
0.0500004
-4.0704e-08
-6.45149e-08
0.0500004
-5.06597e-09
-8.26544e-09
0.0500004
1.89387e-09
1.74349e-09
0.0500004
-9.51121e-10
-8.33456e-10
0.0500004
-3.19157e-10
-2.82827e-10
0.0500004
6.98649e-10
5.46455e-10
0.0500004
-1.8972e-10
-2.01455e-10
-5.63302e-10
-5.73232e-10
0.0500002
-3.35604e-07
-3.45561e-07
0.0500004
-1.76839e-07
-1.82925e-07
0.0500004
-6.19711e-08
-6.4584e-08
0.0500004
-7.15508e-09
-8.14497e-09
0.0500004
2.09514e-09
1.81106e-09
0.0500004
-6.29892e-10
-7.05125e-10
0.0500004
-3.37884e-10
-3.6216e-10
0.0500004
4.21498e-10
4.13653e-10
0.0500004
-9.11843e-11
-9.30207e-11
-4.32721e-10
-4.3333e-10
0.0500003
-4.69481e-07
-3.45847e-07
0.0500004
-2.35264e-07
-1.82421e-07
0.0500004
-8.08269e-08
-6.45763e-08
0.0500004
-7.36549e-09
-8.20149e-09
0.0500004
2.61064e-09
1.83573e-09
0.0500004
-1.20985e-10
-5.2782e-10
0.0500004
-3.38177e-10
-3.9834e-10
0.0500004
1.69057e-10
3.66975e-10
0.0500004
-5.26259e-11
-1.69395e-10
-3.56926e-10
-5.11224e-10
0.0499997
-3.45546e-07
0.0499995
-1.82907e-07
0.0499994
-6.45427e-08
0.0499994
-8.28708e-09
0.0499994
1.74468e-09
0.0499994
-4.12506e-10
0.0499994
-3.97168e-10
0.0499994
2.99977e-10
0.0499994
-8.51117e-11
-4.19887e-10
0.0499996
5.33953e-07
-4.73801e-07
0.0499994
2.57968e-07
-2.38272e-07
0.0499993
9.00258e-08
-8.22401e-08
0.0499993
9.57631e-09
-7.44926e-09
0.0499993
-1.88729e-09
2.05912e-09
0.0499993
-2.58217e-10
-5.42954e-10
0.0499993
2.15531e-10
1.28617e-10
0.0499993
1.79688e-10
3.88341e-10
0.0499993
-1.17414e-10
-3.97486e-10
2.75052e-11
-5.5587e-10
0.0500003
3.96004e-07
-4.73872e-07
0.0500004
2.02437e-07
-2.37198e-07
0.0500004
7.16179e-08
-8.19519e-08
0.0500004
1.01373e-08
-7.42145e-09
0.0500004
-3.73241e-10
2.03812e-09
0.0500004
-3.5579e-10
-6.03662e-10
0.0500004
5.38512e-11
7.62455e-11
0.0500004
4.98513e-10
3.98698e-10
0.0500004
-1.88126e-10
-3.52449e-10
-2.39613e-10
-5.28475e-10
0.0500003
2.67625e-07
-4.73731e-07
0.0500004
1.41976e-07
-2.39228e-07
0.0500004
5.10306e-08
-8.28867e-08
0.0500004
8.5266e-09
-7.68352e-09
0.0500004
7.92763e-10
2.18699e-09
0.0500004
-4.30297e-10
-5.58868e-10
0.0500004
-1.0019e-10
2.03778e-11
0.0500004
7.23195e-10
3.95281e-10
0.0500004
-2.29678e-10
-3.16197e-10
-4.26466e-10
-5.20748e-10
0.0500003
1.4518e-07
-4.73544e-07
0.0500004
7.92003e-08
-2.3654e-07
0.0500004
2.87918e-08
-8.12751e-08
0.0500004
5.41251e-09
-7.50407e-09
0.0500004
1.42489e-09
2.31976e-09
0.0500004
-6.53772e-10
-4.95117e-10
0.0500004
-2.75e-10
-4.12564e-11
0.0500004
8.77488e-10
3.44885e-10
0.0500004
-2.22e-10
-2.81672e-10
-5.69377e-10
-4.80334e-10
0.0500002
2.73128e-08
-4.74464e-07
0.0500004
1.47195e-08
-2.39312e-07
0.0500004
5.73731e-09
-8.28608e-08
0.0500004
1.68424e-09
-7.77887e-09
0.0500004
1.73658e-09
2.42748e-09
0.0500004
-8.67788e-10
-4.59506e-10
0.0500004
-3.79033e-10
-1.68155e-10
0.0500004
9.49003e-10
3.28892e-10
0.0500004
-2.77759e-10
-2.49266e-10
-6.87325e-10
-4.83046e-10
0.0500002
-9.02657e-08
-4.74409e-07
0.0500004
-4.99765e-08
-2.37686e-07
0.0500004
-1.81278e-08
-8.17837e-08
0.0500004
-2.08165e-09
-7.7245e-09
0.0500004
1.98765e-09
2.511e-09
0.0500004
-8.86153e-10
-3.41507e-10
0.0500004
-4.17476e-10
-2.14594e-10
0.0500004
8.71692e-10
3.03899e-10
0.0500004
-2.62374e-10
-1.46036e-10
-7.02577e-10
-4.22608e-10
0.0500002
-2.10811e-07
-4.7338e-07
0.0500004
-1.14391e-07
-2.37631e-07
0.0500004
-4.09374e-08
-8.23491e-08
0.0500004
-5.36421e-09
-7.93285e-09
0.0500004
1.94506e-09
2.53857e-09
0.0500004
-7.66189e-10
-2.48858e-10
0.0500004
-4.4212e-10
-3.00192e-10
0.0500004
6.81302e-10
2.32646e-10
0.0500004
-1.89891e-10
-8.98646e-11
-6.44359e-10
-3.83306e-10
0.0500003
-3.35878e-07
-4.74418e-07
0.0500004
-1.76335e-07
-2.3829e-07
0.0500004
-6.19742e-08
-8.21351e-08
0.0500004
-7.21806e-09
-7.86961e-09
0.0500004
2.11927e-09
2.45985e-09
0.0500004
-4.51098e-10
-1.60212e-10
0.0500004
-3.75368e-10
-3.50739e-10
0.0500004
3.74418e-10
1.65169e-10
0.0500004
-1.67468e-10
-5.33252e-11
-5.10653e-10
-3.56988e-10
0.0500003
-4.69191e-07
-4.74124e-07
0.0500004
-2.34583e-07
-2.37635e-07
0.0500004
-8.08478e-08
-8.21665e-08
0.0500004
-7.52253e-09
-8.027e-09
0.0500004
2.56371e-09
2.41373e-09
0.0500004
2.8701e-11
-1.49121e-11
0.0500004
-3.54877e-10
-3.6742e-10
0.0500004
1.31607e-10
1.27515e-10
0.0500004
-2.51961e-11
-2.61803e-11
-3.55676e-10