/*--------------------------------*- C++ -*----------------------------------*\
| =========                 |                                                 |
| \\      /  F ield         | OpenFOAM: The Open Source CFD Toolbox           |
|  \\    /   O peration     | Version:  1.7.x                                 |
|   \\  /    A nd           | Web:      www.OpenFOAM.com                      |
|    \\/     M anipulation  |                                                 |
\*---------------------------------------------------------------------------*/
FoamFile
{
    version     2.0;
    format      ascii;
    class       volVectorField;
    location    "0.1";
    object      U;
}
// * * * * * * * * * * * * * * * * * * * * * * * * * * * * * * * * * * * * * //

dimensions      [0 1 -1 0 0 0 0];

internalField   nonuniform List<vector> 
1000
(
(4.10666 6.96052e-06 6.19281e-06)
(5.23081 3.63751e-06 3.35945e-06)
(5.15744 1.27108e-06 1.16576e-06)
(4.99239 1.60855e-07 1.38021e-07)
(4.98676 -2.56971e-08 -2.58718e-08)
(4.99925 -6.24834e-09 -6.30382e-09)
(5.00007 4.31836e-10 1.73953e-10)
(5.00047 1.16897e-09 1.08867e-09)
(4.99961 4.74279e-10 4.88557e-10)
(4.99976 1.24261e-09 1.24676e-09)
(4.1067 1.07598e-05 6.19821e-06)
(5.2309 5.48518e-06 3.33877e-06)
(5.15755 1.92268e-06 1.16371e-06)
(4.9925 2.55976e-07 1.42882e-07)
(4.98687 -3.44018e-08 -2.57028e-08)
(4.99936 -8.98019e-09 -3.79654e-09)
(5.00018 1.06985e-08 2.77265e-09)
(5.00058 8.21829e-09 7.76931e-11)
(4.99972 -5.62381e-09 -4.12281e-10)
(4.99987 -3.85854e-09 1.88284e-09)
(4.1067 6.4426e-06 6.19206e-06)
(5.2309 3.23296e-06 3.35022e-06)
(5.15755 1.16679e-06 1.16944e-06)
(4.9925 1.90611e-07 1.44871e-07)
(4.98687 -9.18496e-09 -2.57774e-08)
(4.99936 -6.42748e-09 -3.36242e-09)
(5.00018 1.92445e-08 3.08959e-09)
(5.00058 1.24669e-08 -4.11572e-10)
(4.99972 -1.42075e-08 -1.63814e-09)
(4.99987 -1.14404e-08 1.7861e-09)
(4.1067 4.10519e-06 6.19972e-06)
(5.2309 2.20578e-06 3.34439e-06)
(5.15755 8.1544e-07 1.17417e-06)
(4.9925 1.62171e-07 1.45265e-07)
(4.98687 1.55913e-09 -2.62071e-08)
(4.99936 -1.17732e-08 -3.02873e-09)
(5.00018 2.12206e-08 4.26927e-09)
(5.00058 1.42418e-08 1.2829e-10)
(4.99972 -2.11361e-08 -2.84186e-09)
(4.99987 -1.71536e-08 -2.60414e-10)
(4.1067 1.73403e-06 6.19859e-06)
(5.2309 9.42341e-07 3.33027e-06)
(5.15755 3.52736e-07 1.17201e-06)
(4.9925 9.1772e-08 1.42762e-07)
(4.98687 4.79594e-09 -2.52747e-08)
(4.99936 -1.95159e-08 -2.47103e-09)
(5.00018 2.55258e-08 4.81701e-09)
(5.00058 1.82194e-08 8.50348e-10)
(4.99972 -2.62807e-08 -2.26506e-09)
(4.99987 -2.22948e-08 -1.56412e-10)
(4.1067 -6.3184e-07 6.18988e-06)
(5.2309 -3.6383e-07 3.34599e-06)
(5.15755 -1.17305e-07 1.17236e-06)
(4.9925 1.57888e-08 1.40759e-07)
(4.98687 6.33961e-09 -2.52131e-08)
(4.99936 -2.47965e-08 -2.3844e-09)
(5.00018 2.48423e-08 4.86971e-09)
(5.00058 1.9626e-08 1.16396e-09)
(4.99972 -2.50966e-08 -2.99089e-09)
(4.99987 -2.27026e-08 1.6209e-11)
(4.1067 -3.00322e-06 6.19686e-06)
(5.2309 -1.66511e-06 3.33754e-06)
(5.15755 -5.88382e-07 1.17436e-06)
(4.9925 -6.41766e-08 1.42155e-07)
(4.98687 5.5258e-09 -2.57466e-08)
(4.99936 -2.83342e-08 -3.82543e-09)
(5.00018 2.10972e-08 4.41678e-09)
(5.00058 1.75251e-08 3.20247e-10)
(4.99972 -2.25844e-08 -3.2541e-09)
(4.99987 -2.12112e-08 5.65824e-10)
(4.1067 -5.29671e-06 6.20152e-06)
(5.2309 -2.76843e-06 3.33124e-06)
(5.15755 -9.57644e-07 1.1684e-06)
(4.9925 -9.8346e-08 1.45375e-07)
(4.98687 1.46681e-08 -2.42628e-08)
(4.99936 -2.80741e-08 -3.87187e-09)
(5.00018 1.41665e-08 3.48462e-09)
(5.00058 1.49142e-08 1.49939e-09)
(4.99972 -1.76798e-08 -1.84428e-09)
(4.99987 -1.81016e-08 9.92736e-10)
(4.1067 -9.34932e-06 6.19008e-06)
(5.2309 -4.92421e-06 3.35063e-06)
(5.15755 -1.70337e-06 1.17685e-06)
(4.9925 -1.75515e-07 1.47234e-07)
(4.98687 3.81127e-08 -2.29214e-08)
(4.99936 -1.59984e-08 -5.14271e-09)
(5.00018 5.89355e-09 2.97753e-09)
(5.00058 1.13783e-08 9.32403e-10)
(4.99972 -1.1134e-08 -1.46727e-09)
(4.99987 -1.44747e-08 1.82302e-09)
(4.10667 -6.15186e-06 6.19445e-06)
(5.23081 -3.33516e-06 3.35944e-06)
(5.15745 -1.16428e-06 1.17793e-06)
(4.9924 -1.32036e-07 1.46702e-07)
(4.98677 2.53932e-08 -2.37062e-08)
(4.99926 -2.89508e-09 -5.04161e-09)
(5.00008 1.25721e-09 2.03569e-09)
(5.00048 3.76356e-09 1.46437e-09)
(4.99962 -4.19995e-09 -5.52496e-10)
(4.99977 -6.35945e-09 2.00292e-09)
(4.10669 6.96593e-06 9.50961e-06)
(5.23089 3.61684e-06 5.02162e-06)
(5.15754 1.26905e-06 1.74319e-06)
(4.99249 1.6572e-07 2.14075e-07)
(4.98686 -2.5527e-08 -3.75296e-08)
(4.99935 -3.74726e-09 -9.84641e-09)
(5.00017 3.02912e-09 1.00737e-08)
(5.00057 1.56613e-10 8.02472e-09)
(4.99971 -4.29346e-10 -5.62163e-09)
(4.99986 1.87256e-09 -3.84504e-09)
(4.10673 1.07591e-05 9.50841e-06)
(5.23098 5.47598e-06 5.01194e-06)
(5.15765 1.92638e-06 1.74673e-06)
(4.9926 2.62832e-07 2.21055e-07)
(4.98697 -3.43048e-08 -3.76077e-08)
(4.99946 -6.03313e-09 -6.92976e-09)
(5.00028 1.36172e-08 1.29861e-08)
(5.00068 6.7209e-09 6.52486e-09)
(4.99982 -7.74889e-09 -7.75077e-09)
(4.99997 -3.31956e-09 -3.32017e-09)
(4.10673 6.44416e-06 9.49193e-06)
(5.23098 3.23864e-06 5.01462e-06)
(5.15765 1.17728e-06 1.73683e-06)
(4.9926 1.93001e-07 2.09259e-07)
(4.98697 -9.69229e-09 -3.91512e-08)
(4.99946 -5.66413e-09 -6.82422e-09)
(5.00028 2.07388e-08 1.16695e-08)
(5.00068 1.25161e-08 5.3978e-09)
(4.99982 -1.66413e-08 -8.18619e-09)
(4.99997 -1.35854e-08 -2.42026e-09)
(4.10673 4.11176e-06 9.51994e-06)
(5.23098 2.18586e-06 5.04095e-06)
(5.15765 8.18023e-07 1.74172e-06)
(4.9926 1.60062e-07 2.0843e-07)
(4.98697 2.05718e-09 -3.71445e-08)
(4.99946 -1.08864e-08 -5.85127e-09)
(5.00028 2.29517e-08 1.23642e-08)
(5.00068 1.55063e-08 5.9699e-09)
(4.99982 -2.1763e-08 -8.7682e-09)
(4.99997 -1.90961e-08 -4.29448e-09)
(4.10673 1.72421e-06 9.50341e-06)
(5.23098 9.43948e-07 5.00589e-06)
(5.15765 3.50927e-07 1.73229e-06)
(4.9926 8.72723e-08 2.02805e-07)
(4.98697 5.79181e-09 -3.58435e-08)
(4.99946 -1.88728e-08 -5.15318e-09)
(5.00028 2.61321e-08 1.08166e-08)
(5.00068 1.92586e-08 6.06906e-09)
(4.99982 -2.64291e-08 -7.89101e-09)
(4.99997 -2.20178e-08 -4.24662e-09)
(4.10673 -6.33571e-07 9.50587e-06)
(5.23098 -3.56559e-07 5.0468e-06)
(5.15765 -1.14961e-07 1.74147e-06)
(4.9926 1.51779e-08 2.03576e-07)
(4.98697 5.86467e-09 -3.53288e-08)
(4.99946 -2.61593e-08 -4.98422e-09)
(5.00028 2.44459e-08 8.92303e-09)
(5.00068 1.9092e-08 5.6452e-09)
(4.99982 -2.6085e-08 -6.67519e-09)
(4.99997 -2.19816e-08 -3.30891e-09)
(4.10673 -2.99161e-06 9.50841e-06)
(5.23098 -1.67989e-06 5.00881e-06)
(5.15765 -5.92358e-07 1.73448e-06)
(4.9926 -5.95712e-08 2.02611e-07)
(4.98697 6.47448e-09 -3.41383e-08)
(4.99946 -2.98219e-08 -6.2506e-09)
(5.00028 1.97073e-08 6.68127e-09)
(5.00068 1.78547e-08 5.73579e-09)
(4.99982 -2.14424e-08 -5.54137e-09)
(4.99997 -2.02393e-08 -2.57718e-09)
(4.10673 -5.30355e-06 9.50719e-06)
(5.23098 -2.75538e-06 5.02372e-06)
(5.15765 -9.55169e-07 1.74379e-06)
(4.9926 -9.32721e-08 2.08091e-07)
(4.98697 1.74926e-08 -3.13183e-08)
(4.99946 -2.93864e-08 -6.12816e-09)
(5.00028 1.27319e-08 4.50601e-09)
(5.00068 1.55258e-08 6.32215e-09)
(4.99982 -1.59006e-08 -4.10535e-09)
(4.99997 -1.68461e-08 -2.03719e-09)
(4.10673 -9.35643e-06 9.50612e-06)
(5.23098 -4.89604e-06 5.00231e-06)
(5.15765 -1.69385e-06 1.72961e-06)
(4.9926 -1.74186e-07 2.05909e-07)
(4.98697 3.86679e-08 -3.07893e-08)
(4.99946 -1.71701e-08 -7.53428e-09)
(5.00028 4.44882e-09 2.80966e-09)
(5.00068 1.13444e-08 5.87999e-09)
(4.99982 -9.83751e-09 -3.09458e-09)
(4.99997 -1.34629e-08 -9.74567e-10)
(4.1067 -6.14749e-06 9.50592e-06)
(5.2309 -3.32636e-06 4.99516e-06)
(5.15755 -1.16321e-06 1.72541e-06)
(4.9925 -1.32571e-07 2.01478e-07)
(4.98687 2.46041e-08 -2.91769e-08)
(4.99936 -2.7969e-09 -6.99306e-09)
(5.00018 3.11619e-10 1.35664e-09)
(5.00058 4.3002e-09 6.31764e-09)
(4.99972 -3.28571e-09 -1.81894e-09)
(4.99987 -6.17601e-09 -6.33249e-10)
(4.10669 6.9593e-06 5.54829e-06)
(5.23089 3.62782e-06 2.86274e-06)
(5.15754 1.27462e-06 1.01705e-06)
(4.99249 1.67831e-07 1.488e-07)
(4.98686 -2.57765e-08 -1.64289e-08)
(4.99935 -3.33113e-09 -8.29355e-09)
(5.00017 3.34451e-09 1.84497e-08)
(5.00057 -3.34157e-10 1.222e-08)
(4.99971 -1.6532e-09 -1.4241e-08)
(4.99986 1.77511e-09 -1.14404e-08)
(4.10673 1.07422e-05 5.54941e-06)
(5.23098 5.47818e-06 2.86899e-06)
(5.15765 1.91632e-06 1.02811e-06)
(4.9926 2.51155e-07 1.51684e-07)
(4.98697 -3.60192e-08 -1.69211e-08)
(4.99946 -5.95851e-09 -7.4505e-09)
(5.00028 1.22976e-08 1.99549e-08)
(5.00068 5.60164e-09 1.22736e-08)
(4.99982 -8.19005e-09 -1.66736e-08)
(4.99997 -2.43197e-09 -1.35835e-08)
(4.10673 6.45419e-06 5.55983e-06)
(5.23098 3.26203e-06 2.89122e-06)
(5.15765 1.16181e-06 1.01241e-06)
(4.9926 1.77999e-07 1.36749e-07)
(4.98697 -8.72382e-09 -1.60686e-08)
(4.99946 -5.34649e-09 -7.21167e-09)
(5.00028 1.86221e-08 1.78304e-08)
(5.00068 1.19146e-08 1.16673e-08)
(4.99982 -1.52287e-08 -1.52581e-08)
(4.99997 -1.24181e-08 -1.24205e-08)
(4.10673 4.11671e-06 5.57476e-06)
(5.23098 2.19709e-06 2.9156e-06)
(5.15765 8.10901e-07 1.00855e-06)
(4.9926 1.55725e-07 1.36323e-07)
(4.98697 4.8629e-09 -1.22859e-08)
(4.99946 -1.01034e-08 -6.50614e-09)
(5.00028 2.03735e-08 1.66412e-08)
(5.00068 1.49038e-08 1.23908e-08)
(4.99982 -2.08362e-08 -1.54165e-08)
(4.99997 -1.89867e-08 -1.22611e-08)
(4.10673 1.71998e-06 5.56353e-06)
(5.23098 9.48207e-07 2.89912e-06)
(5.15765 3.52488e-07 1.00584e-06)
(4.9926 8.69175e-08 1.31308e-07)
(4.98697 6.61153e-09 -1.18738e-08)
(4.99946 -1.86502e-08 -7.22417e-09)
(5.00028 2.20861e-08 1.30191e-08)
(5.00068 1.78931e-08 1.22778e-08)
(4.99982 -2.41975e-08 -1.34116e-08)
(4.99997 -2.13119e-08 -1.05739e-08)
(4.10673 -6.26847e-07 5.58079e-06)
(5.23098 -3.60931e-07 2.91632e-06)
(5.15765 -1.15109e-07 1.0095e-06)
(4.9926 1.55909e-08 1.32795e-07)
(4.98697 8.04739e-09 -1.10101e-08)
(4.99946 -2.58913e-08 -8.13921e-09)
(5.00028 2.07074e-08 8.4762e-09)
(5.00068 1.92927e-08 1.18565e-08)
(4.99982 -2.27503e-08 -1.02925e-08)
(4.99997 -2.10271e-08 -9.26251e-09)
(4.10673 -3.00194e-06 5.56187e-06)
(5.23098 -1.68822e-06 2.88638e-06)
(5.15765 -5.86079e-07 9.99609e-07)
(4.9926 -5.96635e-08 1.34088e-07)
(4.98697 9.53778e-09 -7.09871e-09)
(4.99946 -2.94823e-08 -8.5866e-09)
(5.00028 1.66779e-08 4.60082e-09)
(5.00068 1.82075e-08 1.28262e-08)
(4.99982 -2.00148e-08 -7.56699e-09)
(4.99997 -1.99456e-08 -9.21422e-09)
(4.10673 -5.29906e-06 5.55848e-06)
(5.23098 -2.77497e-06 2.92327e-06)
(5.15765 -9.62542e-07 1.00999e-06)
(4.9926 -9.50593e-08 1.33736e-07)
(4.98697 1.80138e-08 -3.88985e-09)
(4.99946 -2.93689e-08 -9.02854e-09)
(5.00028 1.02965e-08 7.11207e-10)
(5.00068 1.50553e-08 1.2771e-08)
(4.99982 -1.52358e-08 -5.80521e-09)
(4.99997 -1.6503e-08 -8.4049e-09)
(4.10673 -9.35058e-06 5.55962e-06)
(5.23098 -4.95278e-06 2.91639e-06)
(5.15765 -1.72175e-06 1.01421e-06)
(4.9926 -1.82133e-07 1.34153e-07)
(4.98697 4.02486e-08 -4.95715e-10)
(4.99946 -1.68736e-08 -8.19944e-09)
(5.00028 2.74422e-09 -1.72568e-09)
(5.00068 1.1364e-08 1.24127e-08)
(4.99982 -8.85069e-09 -3.92191e-09)
(4.99997 -1.3074e-08 -7.8184e-09)
(4.1067 -6.15203e-06 5.56602e-06)
(5.2309 -3.34228e-06 2.93489e-06)
(5.15755 -1.16847e-06 1.02566e-06)
(4.9925 -1.36465e-07 1.31864e-07)
(4.98687 2.70038e-08 2.1435e-09)
(4.99936 -2.35437e-09 -6.80294e-09)
(5.00018 -2.01285e-10 -3.01627e-09)
(5.00058 4.19833e-09 1.16351e-08)
(4.99972 -2.92771e-09 -3.6358e-09)
(4.99987 -6.02002e-09 -7.22852e-09)
(4.10669 6.967e-06 3.3624e-06)
(5.23089 3.62304e-06 1.85482e-06)
(5.15754 1.28009e-06 6.73628e-07)
(4.99249 1.68599e-07 1.17934e-07)
(4.98686 -2.60151e-08 -7.70455e-09)
(4.99935 -2.89854e-09 -1.40477e-08)
(5.00017 4.53417e-09 2.03641e-08)
(5.00057 2.13928e-10 1.39685e-08)
(4.99971 -2.86176e-09 -2.11778e-08)
(4.99986 -2.69776e-10 -1.71649e-08)
(4.10673 1.07706e-05 3.36691e-06)
(5.23098 5.50441e-06 1.83714e-06)
(5.15765 1.92171e-06 6.76563e-07)
(4.9926 2.50767e-07 1.15918e-07)
(4.98697 -3.39463e-08 -7.18314e-09)
(4.99946 -4.95619e-09 -1.30734e-08)
(5.00028 1.29911e-08 2.20971e-08)
(5.00068 6.1636e-09 1.52391e-08)
(4.99982 -8.76578e-09 -2.18046e-08)
(4.99997 -4.30325e-09 -1.91014e-08)
(4.10673 6.46952e-06 3.36851e-06)
(5.23098 3.28525e-06 1.8483e-06)
(5.15765 1.15771e-06 6.68813e-07)
(4.9926 1.77637e-07 1.1116e-07)
(4.98697 -5.05635e-09 -4.30766e-09)
(4.99946 -4.71936e-09 -1.23906e-08)
(5.00028 1.74216e-08 1.94985e-08)
(5.00068 1.26316e-08 1.46289e-08)
(4.99982 -1.53878e-08 -2.08844e-08)
(4.99997 -1.22608e-08 -1.89911e-08)
(4.10673 4.11545e-06 3.36898e-06)
(5.23098 2.19376e-06 1.84442e-06)
(5.15765 8.11456e-07 6.68164e-07)
(4.9926 1.54622e-07 1.10035e-07)
(4.98697 6.24967e-09 -2.91567e-09)
(4.99946 -1.09017e-08 -1.31681e-08)
(5.00028 1.814e-08 1.72743e-08)
(5.00068 1.61164e-08 1.58386e-08)
(4.99982 -1.99182e-08 -1.99666e-08)
(4.99997 -1.72545e-08 -1.72616e-08)
(4.10673 1.73024e-06 3.37575e-06)
(5.23098 9.44675e-07 1.86467e-06)
(5.15765 3.51871e-07 6.7601e-07)
(4.9926 8.37351e-08 1.10778e-07)
(4.98697 7.06027e-09 -2.29127e-09)
(4.99946 -2.05064e-08 -1.41288e-08)
(5.00028 1.79593e-08 1.36381e-08)
(5.00068 1.87242e-08 1.60663e-08)
(4.99982 -2.13046e-08 -1.69527e-08)
(4.99997 -1.90213e-08 -1.56793e-08)
(4.10673 -6.35243e-07 3.35818e-06)
(5.23098 -3.69308e-07 1.82318e-06)
(5.15765 -1.21195e-07 6.64341e-07)
(4.9926 1.79653e-08 1.11437e-07)
(4.98697 1.06411e-08 1.8736e-09)
(4.99946 -2.75269e-08 -1.43339e-08)
(5.00028 1.60246e-08 8.35281e-09)
(5.00068 1.96382e-08 1.77699e-08)
(4.99982 -2.02392e-08 -1.35025e-08)
(4.99997 -2.06221e-08 -1.55074e-08)
(4.10673 -3.01392e-06 3.36166e-06)
(5.23098 -1.67294e-06 1.85065e-06)
(5.15765 -5.91873e-07 6.73664e-07)
(4.9926 -5.86308e-08 1.12616e-07)
(4.98697 1.3588e-08 6.94511e-09)
(4.99946 -3.07167e-08 -1.45675e-08)
(5.00028 1.19492e-08 3.46164e-09)
(5.00068 1.87672e-08 1.66485e-08)
(4.99982 -1.69576e-08 -1.05401e-08)
(4.99997 -1.93812e-08 -1.35293e-08)
(4.10673 -5.30581e-06 3.35766e-06)
(5.23098 -2.72537e-06 1.87278e-06)
(5.15765 -9.40568e-07 6.74699e-07)
(4.9926 -9.32071e-08 1.08868e-07)
(4.98697 2.40905e-08 1.10745e-08)
(4.99946 -2.90018e-08 -1.45185e-08)
(5.00028 6.3989e-09 -1.53628e-09)
(5.00068 1.51112e-08 1.67448e-08)
(4.99982 -1.22551e-08 -8.02688e-09)
(4.99997 -1.54512e-08 -1.27254e-08)
(4.10673 -9.34884e-06 3.36717e-06)
(5.23098 -4.88436e-06 1.86701e-06)
(5.15765 -1.67815e-06 6.71481e-07)
(4.9926 -1.76058e-07 9.94375e-08)
(4.98697 4.47064e-08 1.47878e-08)
(4.99946 -1.49447e-08 -1.30839e-08)
(5.00028 7.13504e-10 -4.61003e-09)
(5.00068 1.021e-08 1.55613e-08)
(4.99982 -7.67578e-09 -4.6912e-09)
(4.99997 -1.22866e-08 -9.14692e-09)
(4.1067 -6.14103e-06 3.35242e-06)
(5.2309 -3.30781e-06 1.87331e-06)
(5.15755 -1.15173e-06 6.75852e-07)
(4.9925 -1.34851e-07 1.02348e-07)
(4.98687 2.72492e-08 1.7164e-08)
(4.99936 -1.39974e-09 -1.15764e-08)
(5.00018 -9.79893e-10 -6.53477e-09)
(5.00058 3.51877e-09 1.55152e-08)
(4.99972 -3.0077e-09 -5.13746e-09)
(4.99987 -5.59451e-09 -1.16163e-08)
(4.10669 6.96379e-06 1.12855e-06)
(5.23089 3.61011e-06 6.30869e-07)
(5.15754 1.27754e-06 2.24133e-07)
(4.99249 1.65811e-07 4.93176e-08)
(4.98686 -2.52585e-08 -5.40193e-09)
(4.99935 -2.35567e-09 -2.20948e-08)
(5.00017 5.07796e-09 2.46171e-08)
(5.00057 9.34154e-10 1.79318e-08)
(4.99971 -2.27556e-09 -2.63382e-08)
(4.99986 -1.5978e-10 -2.23081e-08)
(4.10673 1.07483e-05 1.11961e-06)
(5.23098 5.47164e-06 6.30517e-07)
(5.15765 1.91149e-06 2.21583e-07)
(4.9926 2.44376e-07 4.43602e-08)
(4.98697 -3.26293e-08 -4.40069e-09)
(4.99946 -4.29444e-09 -2.14332e-08)
(5.00028 1.14374e-08 2.5237e-08)
(5.00068 6.25836e-09 1.89789e-08)
(4.99982 -7.89388e-09 -2.64867e-08)
(4.99997 -4.25845e-09 -2.20283e-08)
(4.10673 6.45625e-06 1.11642e-06)
(5.23098 3.26931e-06 6.35847e-07)
(5.15765 1.1534e-06 2.24063e-07)
(4.9926 1.72114e-07 4.33771e-08)
(4.98697 -4.44595e-09 -3.86068e-09)
(4.99946 -5.43568e-09 -2.13031e-08)
(5.00028 1.38018e-08 2.11765e-08)
(5.00068 1.25206e-08 1.76073e-08)
(4.99982 -1.33854e-08 -2.42504e-08)
(4.99997 -1.05782e-08 -2.13224e-08)
(4.10673 4.12395e-06 1.12872e-06)
(5.23098 2.21347e-06 6.36996e-07)
(5.15765 8.18099e-07 2.24276e-07)
(4.9926 1.55343e-07 4.11139e-08)
(4.98697 6.87174e-09 -3.24627e-09)
(4.99946 -1.1844e-08 -2.3124e-08)
(5.00028 1.45129e-08 1.70643e-08)
(5.00068 1.63472e-08 1.84442e-08)
(4.99982 -1.69053e-08 -2.13625e-08)
(4.99997 -1.56694e-08 -1.90338e-08)
(4.10673 1.70918e-06 1.10709e-06)
(5.23098 9.26966e-07 6.16864e-07)
(5.15765 3.48669e-07 2.19282e-07)
(4.9926 8.8312e-08 4.54088e-08)
(4.98697 1.14065e-08 1.19502e-09)
(4.99946 -1.98198e-08 -2.2414e-08)
(5.00028 1.31627e-08 1.22566e-08)
(5.00068 1.98219e-08 1.95385e-08)
(4.99982 -1.77361e-08 -1.77947e-08)
(4.99997 -1.95587e-08 -1.95676e-08)
(4.10673 -6.40933e-07 1.10277e-06)
(5.23098 -3.74958e-07 6.07599e-07)
(5.15765 -1.17464e-07 2.27267e-07)
(4.9926 1.74254e-08 4.4198e-08)
(4.98697 1.72853e-08 7.70487e-09)
(4.99946 -2.6335e-08 -2.15995e-08)
(5.00028 1.05182e-08 6.79082e-09)
(5.00068 1.98793e-08 1.92941e-08)
(4.99982 -1.63439e-08 -1.39113e-08)
(4.99997 -1.88876e-08 -1.74331e-08)
(4.10673 -3.00246e-06 1.11927e-06)
(5.23098 -1.63862e-06 6.36177e-07)
(5.15765 -5.75717e-07 2.2147e-07)
(4.9926 -6.22342e-08 3.36971e-08)
(4.98697 1.87352e-08 1.15944e-08)
(4.99946 -2.96627e-08 -2.11632e-08)
(5.00028 6.79415e-09 5.01909e-10)
(5.00068 1.71847e-08 1.75974e-08)
(4.99982 -1.45399e-08 -1.0965e-08)
(4.99997 -1.71587e-08 -1.42548e-08)
(4.10673 -5.29355e-06 1.11788e-06)
(5.23098 -2.75861e-06 6.16701e-07)
(5.15765 -9.64721e-07 2.21312e-07)
(4.9926 -1.08244e-07 3.07344e-08)
(4.98697 2.58545e-08 1.73469e-08)
(4.99946 -2.78819e-08 -1.9513e-08)
(5.00028 2.23216e-09 -4.36655e-09)
(5.00068 1.3964e-08 1.79475e-08)
(4.99982 -9.3834e-09 -8.35909e-09)
(4.99997 -1.21175e-08 -1.38852e-08)
(4.10673 -9.35579e-06 1.12402e-06)
(5.23098 -4.95222e-06 6.08485e-07)
(5.15765 -1.72059e-06 2.13804e-07)
(4.9926 -1.88647e-07 2.55153e-08)
(4.98697 4.63466e-08 2.21422e-08)
(4.99946 -1.39332e-08 -1.70088e-08)
(5.00028 -2.26046e-09 -7.83519e-09)
(5.00068 1.01321e-08 1.79505e-08)
(4.99982 -5.96462e-09 -4.93688e-09)
(4.99997 -1.19694e-08 -1.20292e-08)
(4.1067 -6.16675e-06 1.10422e-06)
(5.2309 -3.33596e-06 5.87442e-07)
(5.15755 -1.16408e-06 2.06292e-07)
(4.9925 -1.33546e-07 2.34811e-08)
(4.98687 2.93782e-08 2.32389e-08)
(4.99936 -8.53611e-10 -1.56654e-08)
(5.00018 -2.12119e-09 -8.97932e-09)
(5.00058 4.15174e-09 1.71076e-08)
(4.99972 -3.37615e-09 -4.58428e-09)
(4.99987 -8.49146e-09 -1.27266e-08)
(4.10669 6.95805e-06 -1.11423e-06)
(5.23089 3.62268e-06 -6.26977e-07)
(5.15754 1.27753e-06 -2.2853e-07)
(4.99249 1.63641e-07 -2.41823e-08)
(4.98686 -2.5012e-08 -3.91249e-09)
(4.99935 -2.22791e-09 -2.74222e-08)
(5.00017 5.14663e-09 2.39659e-08)
(5.00057 1.2574e-09 1.93528e-08)
(4.99971 -3.00836e-09 -2.51535e-08)
(4.99986 5.07315e-12 -2.2709e-08)
(4.10673 1.07585e-05 -1.11232e-06)
(5.23098 5.50938e-06 -6.21227e-07)
(5.15765 1.92164e-06 -2.26186e-07)
(4.9926 2.44833e-07 -2.42946e-08)
(4.98697 -3.24027e-08 -4.04927e-09)
(4.99946 -4.15844e-09 -2.87147e-08)
(5.00028 9.55279e-09 2.359e-08)
(5.00068 5.84163e-09 1.8823e-08)
(4.99982 -6.68301e-09 -2.61485e-08)
(4.99997 -3.31203e-09 -2.19934e-08)
(4.10673 6.47863e-06 -1.10342e-06)
(5.23098 3.29173e-06 -6.27074e-07)
(5.15765 1.16041e-06 -2.25731e-07)
(4.9926 1.74398e-07 -2.3873e-08)
(4.98697 -3.90087e-09 -2.36269e-09)
(4.99946 -6.41273e-09 -2.85476e-08)
(5.00028 9.24992e-09 1.98377e-08)
(5.00068 1.21e-08 1.90231e-08)
(4.99982 -1.0256e-08 -2.28122e-08)
(4.99997 -9.26064e-09 -2.10461e-08)
(4.10673 4.10612e-06 -1.10833e-06)
(5.23098 2.17478e-06 -6.3036e-07)
(5.15765 8.06677e-07 -2.30457e-07)
(4.9926 1.56662e-07 -2.17928e-08)
(4.98697 1.13109e-08 5.49947e-10)
(4.99946 -1.2015e-08 -3.01067e-08)
(5.00028 9.22103e-09 1.51635e-08)
(5.00068 1.80422e-08 1.93658e-08)
(4.99982 -1.34576e-08 -2.02939e-08)
(4.99997 -1.55014e-08 -2.0633e-08)
(4.10673 1.70428e-06 -1.11531e-06)
(5.23098 9.15273e-07 -6.36591e-07)
(5.15765 3.54861e-07 -2.26572e-07)
(4.9926 8.68238e-08 -2.18621e-08)
(4.98697 1.80103e-08 7.19699e-09)
(4.99946 -1.89781e-08 -2.895e-08)
(5.00028 7.68798e-09 9.6585e-09)
(5.00068 1.95781e-08 1.96051e-08)
(4.99982 -1.38548e-08 -1.63993e-08)
(4.99997 -1.74224e-08 -1.88969e-08)
(4.10673 -6.23055e-07 -1.09807e-06)
(5.23098 -3.49996e-07 -6.13513e-07)
(5.15765 -1.19e-07 -2.30528e-07)
(4.9926 6.24769e-09 -3.25329e-08)
(4.98697 2.10436e-08 1.09412e-08)
(4.99946 -2.62682e-08 -2.88779e-08)
(5.00028 4.27329e-09 3.40531e-09)
(5.00068 1.76946e-08 1.74203e-08)
(4.99982 -1.34127e-08 -1.34747e-08)
(4.99997 -1.5307e-08 -1.5319e-08)
(4.10673 -2.99881e-06 -1.114e-06)
(5.23098 -1.66383e-06 -5.92638e-07)
(5.15765 -5.97831e-07 -2.21372e-07)
(4.9926 -7.20983e-08 -2.95404e-08)
(4.98697 2.32379e-08 1.95605e-08)
(4.99946 -2.86294e-08 -2.69587e-08)
(5.00028 7.90016e-10 -2.85823e-09)
(5.00068 1.74215e-08 1.85547e-08)
(4.99982 -1.14021e-08 -1.02424e-08)
(4.99997 -1.58279e-08 -1.66862e-08)
(4.10673 -5.30106e-06 -1.09983e-06)
(5.23098 -2.75306e-06 -6.28058e-07)
(5.15765 -9.48236e-07 -2.37596e-07)
(4.9926 -1.01387e-07 -4.25443e-08)
(4.98697 3.46415e-08 2.29968e-08)
(4.99946 -2.48511e-08 -2.48577e-08)
(5.00028 -1.94009e-09 -6.94688e-09)
(5.00068 1.54733e-08 1.86921e-08)
(4.99982 -6.22054e-09 -6.95374e-09)
(4.99997 -1.32259e-08 -1.46864e-08)
(4.10673 -9.36249e-06 -1.11611e-06)
(5.23098 -4.91361e-06 -6.06461e-07)
(5.15765 -1.69317e-06 -2.22492e-07)
(4.9926 -1.83309e-07 -3.76891e-08)
(4.98697 5.06019e-08 3.07666e-08)
(4.99946 -1.10941e-08 -2.05893e-08)
(5.00028 -3.90181e-09 -9.96371e-09)
(5.00068 9.37141e-09 1.92306e-08)
(4.99982 -3.90148e-09 -5.16981e-09)
(4.99997 -1.11291e-08 -1.61605e-08)
(4.1067 -6.16082e-06 -1.09001e-06)
(5.2309 -3.32884e-06 -5.89668e-07)
(5.15755 -1.15924e-06 -2.22432e-07)
(4.9925 -1.36885e-07 -4.32048e-08)
(4.98687 2.83514e-08 2.88506e-08)
(4.99936 -5.64244e-11 -1.89796e-08)
(5.00018 -2.12873e-09 -1.07351e-08)
(5.00058 2.67678e-09 1.6415e-08)
(4.99972 -2.65606e-09 -3.58219e-09)
(4.99987 -6.29005e-09 -1.30332e-08)
(4.10669 6.96571e-06 -3.36148e-06)
(5.23089 3.61587e-06 -1.87192e-06)
(5.15754 1.27989e-06 -6.7523e-07)
(4.99249 1.65698e-07 -9.63924e-08)
(4.98686 -2.53931e-08 -3.48567e-09)
(4.99935 -3.65432e-09 -3.06552e-08)
(5.00017 4.70151e-09 2.03308e-08)
(5.00057 4.05291e-10 1.72886e-08)
(4.99971 -3.27251e-09 -2.26454e-08)
(4.99986 5.55914e-10 -2.12234e-08)
(4.10673 1.07591e-05 -3.34977e-06)
(5.23098 5.47156e-06 -1.88583e-06)
(5.15765 1.9143e-06 -6.79029e-07)
(4.9926 2.44686e-07 -9.16434e-08)
(4.98697 -3.1072e-08 -2.81429e-09)
(4.99946 -5.41921e-09 -3.21667e-08)
(5.00028 7.3062e-09 1.89594e-08)
(5.00068 5.92949e-09 1.76208e-08)
(4.99982 -5.54697e-09 -2.14995e-08)
(4.99997 -2.58864e-09 -2.02508e-08)
(4.10673 6.46024e-06 -3.3625e-06)
(5.23098 3.26019e-06 -1.8945e-06)
(5.15765 1.14914e-06 -6.73034e-07)
(4.9926 1.74617e-07 -9.15993e-08)
(4.98697 1.51058e-10 7.60341e-10)
(4.99946 -6.82807e-09 -3.17898e-08)
(5.00028 5.38712e-09 1.59061e-08)
(5.00068 1.30645e-08 1.79701e-08)
(4.99982 -7.5308e-09 -2.00684e-08)
(4.99997 -9.20986e-09 -1.99564e-08)
(4.10673 4.11206e-06 -3.37191e-06)
(5.23098 2.20395e-06 -1.88075e-06)
(5.15765 8.17258e-07 -6.80157e-07)
(4.9926 1.57363e-07 -9.16401e-08)
(4.98697 1.64379e-08 4.60209e-09)
(4.99946 -1.22431e-08 -3.30623e-08)
(5.00028 4.33675e-09 1.11995e-08)
(5.00068 1.69265e-08 1.85303e-08)
(4.99982 -1.04929e-08 -1.70139e-08)
(4.99997 -1.35273e-08 -1.9393e-08)
(4.10673 1.71944e-06 -3.36201e-06)
(5.23098 9.43809e-07 -1.84199e-06)
(5.15765 3.48593e-07 -6.60517e-07)
(4.9926 7.75699e-08 -9.391e-08)
(4.98697 2.17963e-08 9.80997e-09)
(4.99946 -1.85904e-08 -3.20017e-08)
(5.00028 1.40495e-09 6.03415e-09)
(5.00068 1.7874e-08 1.69513e-08)
(4.99982 -1.09125e-08 -1.45916e-08)
(4.99997 -1.4243e-08 -1.71724e-08)
(4.10673 -6.39626e-07 -3.35827e-06)
(5.23098 -3.31001e-07 -1.87254e-06)
(5.15765 -1.12262e-07 -6.86784e-07)
(4.9926 9.74763e-09 -1.04026e-07)
(4.98697 2.9655e-08 1.42436e-08)
(4.99946 -2.43492e-08 -3.10122e-08)
(5.00028 -1.99049e-09 1.3897e-11)
(5.00068 1.88327e-08 1.71853e-08)
(4.99982 -1.01806e-08 -1.14549e-08)
(4.99997 -1.66723e-08 -1.58381e-08)
(4.10673 -3.00422e-06 -3.36388e-06)
(5.23098 -1.65317e-06 -1.86097e-06)
(5.15765 -5.8278e-07 -6.71505e-07)
(4.9926 -7.22359e-08 -1.0419e-07)
(4.98697 3.07932e-08 2.19622e-08)
(4.99946 -2.56337e-08 -2.79861e-08)
(5.00028 -3.56611e-09 -4.32341e-09)
(5.00068 1.84594e-08 1.82218e-08)
(4.99982 -8.01214e-09 -8.07072e-09)
(4.99997 -1.65225e-08 -1.65346e-08)
(4.10673 -5.29566e-06 -3.36451e-06)
(5.23098 -2.77243e-06 -1.86527e-06)
(5.15765 -9.65836e-07 -6.76542e-07)
(4.9926 -1.16396e-07 -1.05689e-07)
(4.98697 3.70567e-08 2.6587e-08)
(4.99946 -2.15096e-08 -2.50193e-08)
(5.00028 -4.87534e-09 -7.31153e-09)
(5.00068 1.46373e-08 1.6714e-08)
(4.99982 -4.31513e-09 -4.90061e-09)
(4.99997 -1.15945e-08 -1.32515e-08)
(4.10673 -9.34599e-06 -3.33965e-06)
(5.23098 -4.91384e-06 -1.86252e-06)
(5.15765 -1.70543e-06 -6.95369e-07)
(4.9926 -1.89318e-07 -1.16557e-07)
(4.98697 5.21937e-08 2.86976e-08)
(4.99946 -8.06538e-09 -2.13166e-08)
(5.00028 -6.04305e-09 -9.39631e-09)
(5.00068 7.84979e-09 1.43567e-08)
(4.99982 -2.59963e-09 -4.36348e-09)
(4.99997 -1.03199e-08 -1.13546e-08)
(4.1067 -6.14066e-06 -3.35318e-06)
(5.2309 -3.31917e-06 -1.87603e-06)
(5.15755 -1.16403e-06 -6.90701e-07)
(4.9925 -1.39064e-07 -1.131e-07)
(4.98687 2.74646e-08 2.67769e-08)
(4.99936 7.56222e-10 -1.95932e-08)
(5.00018 -2.90133e-09 -1.0694e-08)
(5.00058 1.3286e-09 1.28705e-08)
(4.99972 -1.78482e-09 -2.56907e-09)
(4.99987 -5.36637e-09 -1.07512e-08)
(4.10669 6.96979e-06 -5.5506e-06)
(5.23089 3.6088e-06 -2.92207e-06)
(5.15754 1.27374e-06 -1.02347e-06)
(4.99249 1.68394e-07 -1.21366e-07)
(4.98686 -2.43354e-08 7.23872e-09)
(4.99935 -3.73776e-09 -2.99682e-08)
(5.00017 3.77655e-09 1.35833e-08)
(5.00057 1.58542e-09 1.47288e-08)
(4.99971 -1.85858e-09 -1.77266e-08)
(4.99986 9.85709e-10 -1.81131e-08)
(4.10673 1.07575e-05 -5.55866e-06)
(5.23098 5.48682e-06 -2.90932e-06)
(5.15765 1.92385e-06 -1.02104e-06)
(4.9926 2.4963e-07 -1.16877e-07)
(4.98697 -2.81545e-08 9.80175e-09)
(4.99946 -5.29328e-09 -3.13374e-08)
(5.00028 5.12443e-09 1.21211e-08)
(5.00068 6.51841e-09 1.53337e-08)
(4.99982 -4.11142e-09 -1.59392e-08)
(4.99997 -2.04665e-09 -1.68542e-08)
(4.10673 6.45649e-06 -5.55209e-06)
(5.23098 3.29682e-06 -2.92744e-06)
(5.15765 1.15929e-06 -1.02862e-06)
(4.9926 1.74401e-07 -1.18514e-07)
(4.98697 3.51807e-09 1.08388e-08)
(4.99946 -7.30824e-09 -3.12668e-08)
(5.00028 1.48732e-09 9.72645e-09)
(5.00068 1.30082e-08 1.48755e-08)
(4.99982 -5.77123e-09 -1.52823e-08)
(4.99997 -8.40722e-09 -1.65123e-08)
(4.10673 4.10661e-06 -5.56323e-06)
(5.23098 2.22729e-06 -2.8804e-06)
(5.15765 8.1919e-07 -1.00659e-06)
(4.9926 1.54349e-07 -1.16305e-07)
(4.98697 2.03555e-08 1.67721e-08)
(4.99946 -1.22304e-08 -3.09313e-08)
(5.00028 -6.5649e-10 5.81828e-09)
(5.00068 1.70218e-08 1.49236e-08)
(4.99982 -7.98077e-09 -1.22994e-08)
(4.99997 -1.27141e-08 -1.54624e-08)
(4.10673 1.71792e-06 -5.54771e-06)
(5.23098 9.23471e-07 -2.91095e-06)
(5.15765 3.48227e-07 -1.03107e-06)
(4.9926 7.44405e-08 -1.32106e-07)
(4.98697 2.76465e-08 1.85809e-08)
(4.99946 -1.69304e-08 -2.97828e-08)
(5.00028 -3.50016e-09 1.65382e-09)
(5.00068 1.82286e-08 1.37807e-08)
(4.99982 -8.30081e-09 -9.42781e-09)
(4.99997 -1.38757e-08 -1.21265e-08)
(4.10673 -6.2493e-07 -5.55806e-06)
(5.23098 -3.68979e-07 -2.90965e-06)
(5.15765 -1.29992e-07 -1.01435e-06)
(4.9926 -4.02944e-09 -1.24831e-07)
(4.98697 3.3194e-08 2.76176e-08)
(4.99946 -2.22522e-08 -2.67401e-08)
(5.00028 -6.0832e-09 -2.54153e-09)
(5.00068 1.89574e-08 1.52821e-08)
(4.99982 -6.89116e-09 -6.26878e-09)
(4.99997 -1.46718e-08 -1.32415e-08)
(4.10673 -3.00506e-06 -5.55223e-06)
(5.23098 -1.65655e-06 -2.92595e-06)
(5.15765 -5.87584e-07 -1.03153e-06)
(4.9926 -7.37613e-08 -1.40567e-07)
(4.98697 3.55772e-08 2.99435e-08)
(4.99946 -2.26421e-08 -2.34058e-08)
(5.00028 -6.5349e-09 -5.46881e-09)
(5.00068 1.69534e-08 1.44508e-08)
(4.99982 -4.84497e-09 -4.35795e-09)
(4.99997 -1.32406e-08 -1.16043e-08)
(4.10673 -5.27684e-06 -5.53358e-06)
(5.23098 -2.75461e-06 -2.90926e-06)
(5.15765 -9.7211e-07 -1.03831e-06)
(4.9926 -1.13757e-07 -1.37782e-07)
(4.98697 4.13703e-08 3.43085e-08)
(4.99946 -1.81826e-08 -2.0059e-08)
(5.00028 -7.02376e-09 -7.63069e-09)
(5.00068 1.16039e-08 1.14126e-08)
(4.99982 -2.51809e-09 -2.56312e-09)
(4.99997 -8.04786e-09 -8.05869e-09)
(4.10673 -9.35119e-06 -5.54278e-06)
(5.23098 -4.92442e-06 -2.8889e-06)
(5.15765 -1.70735e-06 -1.04098e-06)
(4.9926 -1.90716e-07 -1.38849e-07)
(4.98697 5.07917e-08 3.60807e-08)
(4.99946 -5.66836e-09 -1.61131e-08)
(5.00028 -7.28652e-09 -9.40712e-09)
(5.00068 5.52951e-09 1.07826e-08)
(4.99982 -1.57654e-09 -4.3814e-09)
(4.99997 -8.63145e-09 -1.21436e-08)
(4.1067 -6.17438e-06 -5.55172e-06)
(5.2309 -3.34239e-06 -2.9053e-06)
(5.15755 -1.15459e-06 -1.03596e-06)
(4.9925 -1.33437e-07 -1.39535e-07)
(4.98687 2.64332e-08 3.3001e-08)
(4.99936 1.66455e-09 -1.37857e-08)
(5.00018 -3.42168e-09 -9.54156e-09)
(5.00058 1.19213e-09 8.87587e-09)
(4.99972 -8.5787e-10 -2.05521e-09)
(4.99987 -5.68917e-09 -8.44295e-09)
(4.10669 6.9577e-06 -9.49359e-06)
(5.23089 3.62868e-06 -5.01539e-06)
(5.15754 1.28234e-06 -1.74293e-06)
(4.99249 1.70193e-07 -1.91157e-07)
(4.98686 -2.2832e-08 3.35428e-08)
(4.99935 -5.01592e-09 -1.71754e-08)
(5.00017 3.24247e-09 5.53691e-09)
(5.00057 1.01514e-09 1.12606e-08)
(4.99971 -1.48381e-09 -1.11614e-08)
(4.99986 1.81567e-09 -1.44804e-08)
(4.10673 1.07576e-05 -9.50169e-06)
(5.23098 5.46624e-06 -4.98682e-06)
(5.15765 1.90918e-06 -1.73317e-06)
(4.9926 2.47548e-07 -1.8974e-07)
(4.98697 -2.74648e-08 3.41287e-08)
(4.99946 -6.71333e-09 -1.83691e-08)
(5.00028 3.44753e-09 4.05591e-09)
(5.00068 6.07238e-09 1.12262e-08)
(4.99982 -3.09872e-09 -9.8634e-09)
(4.99997 -9.82581e-10 -1.34698e-08)
(4.10673 6.45567e-06 -9.49274e-06)
(5.23098 3.28911e-06 -5.04366e-06)
(5.15765 1.1636e-06 -1.76209e-06)
(4.9926 1.7519e-07 -1.97534e-07)
(4.98697 7.12249e-09 3.5821e-08)
(4.99946 -6.41551e-09 -1.80542e-08)
(5.00028 -9.107e-10 2.39203e-09)
(5.00068 1.26589e-08 1.12492e-08)
(4.99982 -3.89098e-09 -8.88028e-09)
(4.99997 -7.81645e-09 -1.30723e-08)
(4.10673 4.11645e-06 -9.49648e-06)
(5.23098 2.22043e-06 -4.97612e-06)
(5.15765 8.14814e-07 -1.71672e-06)
(4.9926 1.43767e-07 -1.90986e-07)
(4.98697 2.4175e-08 4.04442e-08)
(4.99946 -1.0758e-08 -1.61004e-08)
(5.00028 -3.73222e-09 3.4165e-10)
(5.00068 1.5834e-08 1.00935e-08)
(4.99982 -4.64031e-09 -7.70852e-09)