/*--------------------------------*- C++ -*----------------------------------*\
| =========                 |                                                 |
| \\      /  F ield         | OpenFOAM: The Open Source CFD Toolbox           |
|  \\    /   O peration     | Version:  1.7.x                                 |
|   \\  /    A nd           | Web:      www.OpenFOAM.com                      |
|    \\/     M anipulation  |                                                 |
\*---------------------------------------------------------------------------*/
FoamFile
{
    version     2.0;
    format      ascii;
    class       volScalarField;
    location    "0.1";
    object      alpha1;
}
// * * * * * * * * * * * * * * * * * * * * * * * * * * * * * * * * * * * * * //

dimensions      [0 -3 0 0 1 0 0];

internalField   nonuniform List<scalar> 
8000
(
3.39113e-58
3.24467e-49
5.45842e-41
1.09005e-33
4.75108e-31
3.29138e-29
6.00276e-28
2.40487e-27
4.04754e-28
-2.55001e-27
4.54396e-56
7.03117e-48
7.85326e-40
1.52556e-32
8.09799e-30
5.49808e-28
9.44903e-27
3.54322e-26
2.30927e-27
-4.25821e-26
5.02994e-56
7.63002e-48
8.65557e-40
1.71512e-32
9.07702e-30
6.1559e-28
1.05754e-26
3.98643e-26
5.50995e-27
-3.6251e-26
5.34564e-56
8.07595e-48
9.26499e-40
1.87685e-32
9.84097e-30
6.67879e-28
1.15116e-26
4.38936e-26
8.73959e-27
-2.80409e-26
5.94442e-56
8.88047e-48
1.01886e-39
2.10016e-32
1.10009e-29
7.48867e-28
1.29715e-26
5.01312e-26
1.28302e-26
-2.03091e-26
6.81065e-56
1.00083e-47
1.13891e-39
2.38155e-32
1.25528e-29
8.58583e-28
1.49552e-26
5.85561e-26
1.75977e-26
-1.31887e-26
7.93374e-56
1.14336e-47
1.28159e-39
2.71059e-32
1.44684e-29
9.95488e-28
1.7445e-26
6.91744e-26
2.29688e-26
-6.97909e-27
9.28067e-56
1.31204e-47
1.43956e-39
3.06514e-32
1.66651e-29
1.15462e-27
2.03682e-26
8.18199e-26
2.89211e-26
-1.6827e-27
9.9296e-56
1.40282e-47
1.50188e-39
3.22394e-32
1.77284e-29
1.23722e-27
2.20083e-26
8.97349e-26
3.25173e-26
7.48653e-28
1.94679e-57
7.36311e-49
1.14503e-40
2.5854e-33
1.17235e-30
8.35102e-29
1.57278e-27
6.7799e-27
2.86565e-27
1.21826e-28
8.14367e-50
-6.38176e-42
-4.28217e-34
-1.77103e-31
-3.74495e-29
-1.73324e-27
-2.36619e-26
-7.50267e-26
-8.22903e-27
4.71786e-26
5.40376e-48
6.75809e-41
-7.98111e-33
-2.58492e-30
-6.60766e-28
-2.995e-26
-3.84182e-25
-1.13972e-24
-3.29409e-26
8.43022e-25
5.87749e-48
4.99061e-41
-9.01271e-33
-2.91398e-30
-7.42159e-28
-3.35969e-26
-4.30753e-25
-1.28372e-24
-1.09475e-25
7.14295e-25
6.1893e-48
4.10811e-41
-9.84978e-33
-3.18964e-30
-8.03811e-28
-3.64078e-26
-4.68455e-25
-1.41184e-24
-1.87034e-25
5.47374e-25
6.82253e-48
4.03484e-41
-1.10809e-32
-3.5724e-30
-8.98173e-28
-4.07958e-26
-5.27637e-25
-1.61171e-24
-2.853e-25
3.91497e-25
7.75746e-48
4.59688e-41
-1.27007e-32
-4.05483e-30
-1.02489e-27
-4.67578e-26
-6.08169e-25
-1.88176e-24
-3.98862e-25
2.48604e-25
8.98773e-48
5.94307e-41
-1.46777e-32
-4.61854e-30
-1.1816e-27
-5.42239e-26
-7.09735e-25
-2.22422e-24
-5.26478e-25
1.24303e-25
1.0483e-47
8.46165e-41
-1.69244e-32
-5.2268e-30
-1.36189e-27
-6.29454e-26
-8.2979e-25
-2.63556e-24
-6.68212e-25
1.77126e-26
1.12837e-47
1.28379e-40
-1.79609e-32
-5.48962e-30
-1.44657e-27
-6.73589e-26
-8.95936e-25
-2.88993e-24
-7.51729e-25
-2.91658e-26
2.52532e-49
-1.27901e-41
-1.07385e-33
-4.23823e-31
-9.24092e-29
-4.39093e-27
-6.19566e-26
-2.11383e-25
-6.51725e-26
-2.88174e-27
1.06031e-41
4.33715e-35
7.29295e-32
1.44129e-29
2.01189e-27
6.94976e-26
7.52663e-25
1.93942e-24
1.23975e-25
-7.37448e-25
3.6454e-40
-1.24052e-33
1.39685e-30
2.10931e-28
3.58037e-26
1.20894e-24
1.22697e-23
2.95347e-23
1.30843e-26
-1.37562e-23
3.9545e-40
-1.18702e-33
1.58908e-30
2.39425e-28
4.04888e-26
1.36531e-24
1.38463e-23
3.34499e-23
1.46869e-24
-1.16214e-23
4.16261e-40
-1.19132e-33
1.73931e-30
2.62569e-28
4.39043e-26
1.48157e-24
1.50814e-23
3.68363e-23
2.96702e-24
-8.81233e-24
4.56161e-40
-1.33086e-33
1.95814e-30
2.94275e-28
4.90634e-26
1.66063e-24
1.69958e-23
4.20749e-23
4.86575e-24
-6.18982e-24
5.13737e-40
-1.60162e-33
2.24486e-30
3.34038e-28
5.59678e-26
1.90286e-24
1.95884e-23
4.91214e-23
7.03429e-24
-3.79095e-24
5.88144e-40
-2.03165e-33
2.5932e-30
3.80219e-28
6.4489e-26
2.20611e-24
2.28606e-23
5.80786e-23
9.45083e-24
-1.7083e-24
6.76819e-40
-2.66714e-33
2.98498e-30
4.29391e-28
7.42183e-26
2.55856e-24
2.67163e-23
6.88308e-23
1.21152e-23
8.9789e-26
7.19819e-40
-3.38583e-33
3.14576e-30
4.48145e-28
7.8351e-26
2.72288e-24
2.87064e-23
7.51781e-23
1.36058e-23
8.30111e-25
2.48772e-41
8.36095e-35
1.8392e-31
3.44949e-29
4.95683e-27
1.75931e-25
1.97112e-24
5.46786e-24
1.20169e-24
5.88908e-26
-9.17231e-35
-8.07468e-33
-5.95608e-30
-7.7561e-28
-8.13558e-26
-2.24434e-24
-2.00175e-23
-4.28269e-23
-1.11097e-24
1.01508e-23
-4.35721e-33
2.24302e-31
-1.12604e-28
-1.10177e-26
-1.42035e-24
-3.82448e-23
-3.18459e-22
-6.35748e-22
1.64203e-23
1.93525e-22
-4.94138e-33
2.18374e-31
-1.29176e-28
-1.26127e-26
-1.62059e-24
-4.35742e-23
-3.62441e-22
-7.25418e-22
-6.07353e-24
1.62754e-22
-5.38011e-33
2.19496e-31
-1.41798e-28
-1.38874e-26
-1.76352e-24
-4.74608e-23
-3.96344e-22
-8.01903e-22
-3.01962e-23
1.21764e-22
-6.10228e-33
2.44973e-31
-1.59798e-28
-1.55864e-26
-1.97327e-24
-5.32792e-23
-4.47531e-22
-9.17882e-22
-6.07698e-23
8.32524e-23
-7.12587e-33
2.9439e-31
-1.8317e-28
-1.76847e-26
-2.2504e-24
-6.10517e-23
-5.16033e-22
-1.07235e-21
-9.51235e-23
4.79917e-23
-8.46055e-33
3.72559e-31
-2.11295e-28
-2.00876e-26
-2.58964e-24
-7.07175e-23
-6.02029e-22
-1.26809e-21
-1.32765e-22
1.74173e-23
-1.00543e-32
4.87195e-31
-2.42362e-28
-2.25844e-26
-2.97105e-24
-8.1809e-23
-7.02273e-22
-1.50131e-21
-1.73569e-22
-9.19379e-24
-1.08399e-32
6.08602e-31
-2.53374e-28
-2.33827e-26
-3.11266e-24
-8.64537e-23
-7.49988e-22
-1.63175e-21
-1.95222e-22
-1.91157e-23
-2.77312e-34
-1.58657e-32
-1.50004e-29
-1.85231e-27
-2.00274e-25
-5.68355e-24
-5.25305e-23
-1.21166e-22
-1.83603e-23
-1.08014e-24
1.57937e-32
6.94102e-31
3.13777e-28
2.99979e-26
2.56224e-24
5.89163e-23
4.43407e-22
7.95162e-22
-5.63296e-24
-1.18098e-22
7.53872e-31
-1.76209e-29
5.72501e-27
4.00464e-25
4.25784e-23
9.52419e-22
6.65418e-21
1.10907e-20
-5.69685e-22
-2.22424e-21
8.60928e-31
-1.74335e-29
6.60714e-27
4.61212e-25
4.88885e-23
1.09183e-21
7.61682e-21
1.27138e-20
-3.06592e-22
-1.8433e-21
9.39684e-31
-1.75668e-29
7.27416e-27
5.10199e-25
5.34133e-23
1.19435e-21
8.36898e-21
1.41238e-20
-1.20912e-24
-1.34845e-21
1.06685e-30
-1.96044e-29
8.20664e-27
5.73771e-25
5.98795e-23
1.34393e-21
9.47823e-21
1.62237e-20
3.86067e-22
-8.80254e-22
1.24532e-30
-2.3535e-29
9.40319e-27
6.50726e-25
6.82874e-23
1.5408e-21
1.09433e-20
1.89914e-20
8.12101e-22
-4.5086e-22
1.47565e-30
-2.97092e-29
1.08283e-26
7.37386e-25
7.84751e-23
1.7835e-21
1.27689e-20
2.24828e-20
1.26659e-21
-7.90319e-23
1.74701e-30
-3.86661e-29
1.23783e-26
8.25277e-25
8.97723e-23
2.0588e-21
1.48769e-20
2.66184e-20
1.74755e-21
2.48371e-22
1.86986e-30
-4.76379e-29
1.28709e-26
8.50104e-25
9.36283e-23
2.16773e-21
1.5849e-20
2.89119e-20
2.00177e-21
3.54581e-22
4.80519e-32
1.37529e-30
7.88548e-28
7.15081e-26
6.30785e-24
1.49505e-22
1.16905e-21
2.26761e-21
2.18897e-22
1.73882e-23
-1.47667e-30
-3.29e-29
-1.16987e-26
-8.863e-25
-6.65386e-23
-1.31983e-21
-8.53646e-21
-1.29624e-20
4.99984e-22
1.22755e-21
-7.01526e-29
1.08837e-27
-2.02561e-25
-1.06243e-23
-1.01917e-21
-1.95563e-20
-1.16358e-19
-1.633e-19
1.33342e-20
2.25773e-20
-8.06644e-29
1.11297e-27
-2.34297e-25
-1.22682e-23
-1.17372e-21
-2.24835e-20
-1.3353e-19
-1.87531e-19
1.10194e-20
1.81596e-20
-8.82296e-29
1.14016e-27
-2.58525e-25
-1.36424e-23
-1.28732e-21
-2.47043e-20
-1.47519e-19
-2.09673e-19
7.839e-21
1.27339e-20
-1.00243e-28
1.27571e-27
-2.92025e-25
-1.53785e-23
-1.44636e-21
-2.78821e-20
-1.67785e-19
-2.42193e-19
3.81619e-21
7.55625e-21
-1.16968e-28
1.51934e-27
-3.34653e-25
-1.74299e-23
-1.65016e-21
-3.20112e-20
-1.94263e-19
-2.84721e-19
-4.59417e-22
2.79711e-21
-1.38367e-28
1.88801e-27
-3.85187e-25
-1.96932e-23
-1.8948e-21
-3.70608e-20
-2.27039e-19
-3.38212e-19
-4.79831e-21
-1.32255e-21
-1.63271e-28
2.40585e-27
-4.3981e-25
-2.19283e-23
-2.16337e-21
-4.27426e-20
-2.64651e-19
-4.0142e-19
-9.18719e-21
-5.02148e-21
-1.73637e-28
2.87698e-27
-4.57082e-25
-2.25467e-23
-2.2549e-21
-4.50271e-20
-2.82573e-19
-4.38003e-19
-1.16312e-20
-5.99354e-21
-4.50936e-30
-6.09814e-29
-2.94409e-26
-2.10678e-24
-1.64011e-22
-3.36405e-21
-2.27082e-20
-3.75378e-20
-1.93406e-21
-2.67504e-22
7.98713e-29
1.05627e-27
3.45475e-25
2.07385e-23
1.47672e-21
2.59574e-20
1.45539e-19
1.85017e-19
-1.2499e-20
-9.80902e-21
3.66272e-27
-4.52624e-26
5.6372e-24
2.12446e-22
2.0296e-20
3.41878e-19
1.73568e-18
2.0079e-18
-2.29571e-19
-1.71624e-19
4.21329e-27
-4.74927e-26
6.5223e-24
2.45192e-22
2.33937e-20
3.9338e-19
1.99312e-18
2.30587e-18
-2.18108e-19
-1.28647e-19
4.6082e-27
-4.92878e-26
7.20698e-24
2.74309e-22
2.57594e-20
4.34483e-19
2.2181e-18
2.60454e-18
-1.93441e-19
-8.11878e-20
5.23407e-27
-5.52639e-26
8.14987e-24
3.10077e-22
2.90194e-20
4.92418e-19
2.53952e-18
3.03807e-18
-1.62581e-19
-3.53453e-20
6.1032e-27
-6.54052e-26
9.34363e-24
3.51175e-22
3.3149e-20
5.66978e-19
2.95631e-18
3.60244e-18
-1.32151e-19
6.9459e-21
7.21284e-27
-8.0269e-26
1.07577e-23
3.95362e-22
3.80684e-20
6.57576e-19
3.46985e-18
4.31227e-18
-1.0502e-19
4.36746e-20
8.50192e-27
-1.00592e-25
1.22877e-23
4.37597e-22
4.34308e-20
7.58981e-19
4.05729e-18
5.15206e-18
-8.11842e-20
7.78344e-20
9.04062e-27
-1.17533e-25
1.27965e-23
4.50396e-22
4.53751e-20
8.02722e-19
4.36057e-18
5.6806e-18
-6.61409e-20
8.43456e-20
2.44776e-28
1.763e-27
8.72646e-25
4.91162e-23
3.65164e-21
6.67166e-20
3.93354e-19
5.50897e-19
6.80368e-21
3.6796e-21
-3.93842e-27
-1.77772e-26
-7.49508e-24
-3.70811e-22
-2.79356e-20
-4.44914e-19
-2.17191e-18
-2.29692e-18
2.41095e-19
6.03652e-20
-1.74091e-25
1.70508e-24
-1.19471e-22
-2.98087e-21
-3.3665e-19
-5.04102e-18
-2.15388e-17
-1.98809e-17
3.48058e-18
1.02922e-18
-2.00343e-25
1.82738e-24
-1.37849e-22
-3.42955e-21
-3.87673e-19
-5.79571e-18
-2.47175e-17
-2.28334e-17
3.53182e-18
6.0368e-19
-2.19098e-25
1.92367e-24
-1.52166e-22
-3.87364e-21
-4.28777e-19
-6.44658e-18
-2.78482e-17
-2.63574e-17
3.41477e-18
2.03927e-19
-2.48807e-25
2.1631e-24
-1.72206e-22
-4.39635e-21
-4.84813e-19
-7.35447e-18
-3.22728e-17
-3.14109e-17
3.27918e-18
-1.94084e-19
-2.89923e-25
2.54393e-24
-1.97832e-22
-4.96986e-21
-5.55276e-19
-8.51638e-18
-3.79845e-17
-3.79664e-17
3.19422e-18
-5.66286e-19
-3.42321e-25
3.08116e-24
-2.28592e-22
-5.55613e-21
-6.38788e-19
-9.92282e-18
-4.50072e-17
-4.62339e-17
3.2008e-18
-8.94999e-19
-4.03341e-25
3.79332e-24
-2.62476e-22
-6.07943e-21
-7.29522e-19
-1.14948e-17
-5.30464e-17
-5.60671e-17
3.29834e-18
-1.22131e-18
-4.2919e-25
4.34379e-24
-2.75254e-22
-6.26683e-21
-7.66342e-19
-1.22566e-17
-5.77425e-17
-6.30579e-17
3.34494e-18
-1.25595e-18
-1.21431e-26
-1.31601e-26
-1.92075e-23
-8.71376e-22
-6.95253e-20
-1.16089e-18
-6.04095e-18
-7.21257e-18
1.81858e-19
-5.52893e-20
1.13606e-25
-2.6051e-25
1.31869e-22
4.2926e-21
4.44981e-19
6.60636e-18
2.78836e-17
2.30495e-17
-3.34477e-18
-1.03185e-20
5.08179e-24
-4.93924e-23
2.13653e-21
1.83642e-20
4.56165e-18
6.11838e-17
2.07593e-16
1.26159e-16
-3.88646e-17
-2.57403e-19
5.82063e-24
-5.40205e-23
2.45406e-21
2.0713e-20
5.24005e-18
7.02146e-17
2.38209e-16
1.45976e-16
-4.05773e-17
2.68271e-18
6.35083e-24
-5.7616e-23
2.7027e-21
2.42859e-20
5.83077e-18
7.90665e-17
2.76025e-16
1.81282e-16
-4.09082e-17
4.75608e-18
7.20613e-24
-6.49351e-23
3.06105e-21
2.78902e-20
6.63213e-18
9.13444e-17
3.2906e-16
2.31109e-16
-4.15707e-17
7.00585e-18
8.39512e-24
-7.59137e-23
3.52746e-21
3.11028e-20
7.63746e-18
1.07028e-16
3.97315e-16
2.953e-16
-4.31508e-17
9.20639e-18
9.92023e-24
-9.08432e-23
4.09768e-21
3.34596e-20
8.8269e-18
1.26e-16
4.813e-16
3.76774e-16
-4.61345e-17
1.12654e-17
1.17187e-23
-1.09992e-22
4.7425e-21
3.43216e-20
1.01219e-17
1.47284e-16
5.78107e-16
4.74975e-16
-5.05667e-17
1.35781e-17
1.25467e-23
-1.23513e-22
5.02194e-21
3.52633e-20
1.07338e-17
1.59326e-16
6.44628e-16
5.57273e-16
-5.36415e-17
1.37213e-17
3.55755e-25
-1.48659e-24
3.46423e-22
9.82437e-21
1.12085e-18
1.77157e-17
8.18926e-17
8.09012e-17
-4.7413e-18
6.70779e-19
-3.21551e-24
2.69651e-23
-1.65236e-21
-6.98555e-21
-5.91038e-18
-8.26046e-17
-2.87564e-16
-1.5755e-16
4.1758e-17
-5.70763e-18
-1.37332e-22
1.32592e-21
-3.28322e-20
3.61805e-19
-4.85625e-17
-5.51281e-16
-1.04586e-15
3.44863e-16
3.48445e-16
-8.14496e-17
-1.56098e-22
1.47512e-21
-3.75301e-20
4.25487e-19
-5.55945e-17
-6.31937e-16
-1.21466e-15
3.42716e-16
3.6609e-16
-1.03567e-16
-1.69815e-22
1.59097e-21
-4.10781e-20
4.59117e-19
-6.25905e-17
-7.34185e-16
-1.60084e-15
4.66345e-17
3.82767e-16
-1.12259e-16
-1.92477e-22
1.79783e-21
-4.65454e-20
5.18724e-19
-7.20758e-17
-8.75611e-16
-2.13703e-15
-3.54525e-16
4.07303e-16
-1.25227e-16
-2.24196e-22
2.09481e-21
-5.39872e-20
6.09147e-19
-8.39927e-17
-1.05614e-15
-2.82194e-15
-8.57161e-16
4.44114e-16
-1.39822e-16
-2.65184e-22
2.48717e-21
-6.34485e-20
7.33394e-19
-9.81105e-17
-1.27488e-15
-3.66656e-15
-1.50051e-15
4.99064e-16
-1.55689e-16
-3.14361e-22
2.97507e-21
-7.46233e-20
8.87777e-19
-1.13588e-16
-1.52265e-15
-4.65427e-15
-2.29578e-15
5.73517e-16
-1.76892e-16
-3.39692e-22
3.28816e-21
-8.00976e-20
9.45474e-19
-1.22371e-16
-1.69273e-15
-5.49804e-15
-3.15212e-15
6.3753e-16
-1.80195e-16
-1.01561e-23
8.991e-23
-4.68632e-21
-3.33255e-21
-1.523e-17
-2.33641e-16
-9.50187e-16
-7.57182e-16
8.19148e-17
-1.10653e-17
4.80477e-23
-6.84305e-22
1.94031e-20
-6.95566e-19
4.61513e-17
6.0783e-16
1.41556e-15
-2.16415e-16
-2.51772e-16
5.71051e-17
1.94259e-21
-2.15954e-20
4.12477e-19
-8.69851e-18
2.55403e-16
1.44916e-15
-1.01874e-14
-2.20026e-14
-7.26363e-16
7.37808e-16
2.19546e-21
-2.43228e-20
4.72254e-19
-1.00077e-17
2.91522e-16
1.6909e-15
-1.11363e-14
-2.40883e-14
-7.02725e-16
8.02134e-16
2.38622e-21
-2.64515e-20
5.183e-19
-1.11703e-17
3.40324e-16
2.4227e-15
-8.71745e-15
-2.26564e-14
-8.62657e-16
7.94888e-16
2.70466e-21
-2.99877e-20
5.89819e-19
-1.28504e-17
4.0667e-16
3.43141e-15
-5.44092e-15
-2.09936e-14
-1.08334e-15
8.23778e-16
3.1519e-21
-3.49495e-20
6.88382e-19
-1.50735e-17
4.90243e-16
4.71206e-15
-1.3683e-15
-1.91807e-14
-1.3769e-15
8.73769e-16
3.73224e-21
-4.14044e-20
8.15033e-19
-1.78342e-17
5.89557e-16
6.26806e-15
3.66576e-15
-1.68255e-14
-1.79183e-15
9.46658e-16
4.43607e-21
-4.92758e-20
9.66034e-19
-2.10149e-17
6.9981e-16
8.06408e-15
9.75918e-15
-1.36256e-14
-2.35591e-15
1.06306e-15
4.83159e-21
-5.39498e-20
1.04405e-18
-2.27294e-17
7.78495e-16
9.66899e-15
1.70627e-14
-7.80859e-15
-2.99866e-15
1.11391e-15
1.53067e-22
-2.13258e-21
5.84399e-20
-1.93093e-18
1.24875e-16
1.9485e-15
6.77851e-15
3.68924e-15
-6.89817e-16
9.10497e-17
7.07441e-24
-1.8112e-22
8.06068e-21
8.57481e-19
-1.55576e-16
-1.25614e-15
3.26446e-15
1.19275e-14
3.22185e-16
-1.00608e-16
-3.60439e-22
1.01274e-20
-3.92649e-19
1.19198e-17
-8.36682e-17
1.72771e-14
1.76951e-13
2.1834e-13
-3.15246e-15
-1.47264e-15
-3.82458e-22
1.10255e-20
-4.46376e-19
1.36433e-17
-1.02315e-16
1.91691e-14
1.96028e-13
2.39297e-13
-3.91625e-15
-1.43873e-15
-4.10059e-22
1.19432e-20
-4.92739e-19
1.58267e-17
-2.57068e-16
1.71413e-14
1.90375e-13
2.36639e-13
-3.96379e-15
-1.2285e-15
-4.77092e-22
1.38926e-20
-5.76785e-19
1.90691e-17
-4.69012e-16
1.43729e-14
1.83533e-13
2.364e-13
-4.03239e-15
-1.11393e-15
-5.86199e-22
1.69505e-20
-7.02406e-19
2.34519e-17
-7.35902e-16
1.09469e-14
1.76191e-13
2.39221e-13
-4.16917e-15
-1.03838e-15
-7.46887e-22
2.13274e-20
-8.75786e-19
2.90498e-17
-1.05448e-15
6.77498e-15
1.67128e-13
2.42756e-13
-4.27075e-15
-9.92507e-16
-9.68878e-22
2.7221e-20
-1.10057e-18
3.58052e-17
-1.41739e-15
1.71311e-15
1.54291e-13
2.44317e-13
-4.18546e-15
-1.02024e-15
-1.17398e-21
3.21155e-20
-1.24622e-18
4.05524e-17
-1.77682e-15
-5.34172e-15
1.22004e-13
2.22857e-13
-3.41196e-15
-9.9475e-16
5.11231e-25
1.72058e-22
-1.52794e-20
3.04905e-18
-4.81681e-16
-6.47854e-15
-1.67764e-14
-6.15952e-16
9.23521e-16
-6.59779e-17
3.70322e-25
4.23063e-22
-1.61648e-19
1.8536e-18
2.59788e-16
-5.67586e-15
-9.22279e-14
-1.45998e-13
-4.23739e-17
9.62889e-16
-2.89592e-23
2.17649e-21
-1.98589e-20
-6.43492e-18
-5.84412e-15
-2.14845e-13
-1.62103e-12
-1.80354e-12
1.80456e-14
1.14966e-14
-2.34619e-23
2.08884e-21
-2.09566e-20
-7.37505e-18
-6.51e-15
-2.38723e-13
-1.79024e-12
-1.96924e-12
2.25639e-14
1.07123e-14
-2.02168e-23
2.09262e-21
-4.3912e-20
-1.02208e-17
-6.13276e-15
-2.35727e-13
-1.79294e-12
-1.97827e-12
2.37921e-14
8.50689e-15
-1.72572e-23
1.91119e-21
-4.22084e-20
-1.40081e-17
-5.60227e-15
-2.31807e-13
-1.80562e-12
-2.02099e-12
2.50432e-14
7.06727e-15
-1.21185e-23
1.38226e-21
-6.57493e-21
-1.90498e-17
-4.94179e-15
-2.27729e-13
-1.83339e-12
-2.10108e-12
2.70888e-14
5.97675e-15
-2.62063e-24
2.80786e-22
8.38838e-20
-2.58251e-17
-4.14279e-15
-2.22584e-13
-1.86746e-12
-2.20389e-12
2.98768e-14
5.1398e-15
1.29853e-23
-1.57581e-21
2.55242e-19
-3.48193e-17
-3.16119e-15
-2.14052e-13
-1.88902e-12
-2.30854e-12
3.28926e-14
4.77433e-15
2.65628e-23
-3.1995e-21
3.85149e-19
-4.31813e-17
-1.53802e-15
-1.83039e-13
-1.7491e-12
-2.24385e-12
3.34062e-14
4.35191e-15
7.64645e-25
7.91258e-22
-3.28781e-19
3.00179e-18
1.48645e-15
1.19688e-14
-3.57005e-14
-1.29773e-13
2.77341e-16
2.68479e-16
1.28936e-23
4.66645e-21
4.37126e-19
-2.14914e-18
2.27611e-15
1.09488e-13
1.01899e-12
1.44075e-12
-6.34404e-16
-2.36116e-14
-8.68263e-23
6.51062e-21
-1.32074e-18
1.51376e-16
6.03633e-14
1.72533e-12
1.22859e-11
1.36833e-11
-5.87585e-14
-3.06218e-13
-9.17166e-23
7.87891e-21
-1.49486e-18
1.69242e-16
6.7063e-14
1.90958e-12
1.34989e-11
1.48453e-11
-8.26278e-14
-2.68658e-13
-8.82913e-23
9.94254e-21
-1.2696e-18
1.73366e-16
6.70927e-14
1.92914e-12
1.36774e-11
1.50334e-11
-8.38183e-14
-1.99111e-13
-9.32237e-23
1.17593e-20
-9.71715e-19
1.7178e-16
6.69974e-14
1.95726e-12
1.39902e-11
1.55215e-11
-7.81284e-14
-1.46386e-13
-1.05904e-22
1.34536e-20
-6.18425e-19
1.66111e-16
6.69473e-14
1.99889e-12
1.44676e-11
1.63277e-11
-7.45861e-14
-1.04538e-13
-1.27592e-22
1.47133e-20
-2.45095e-19
1.57556e-16
6.67651e-14
2.04695e-12
1.50503e-11
1.73587e-11
-7.43165e-14
-7.11203e-14
-1.64936e-22
1.41392e-20
1.13835e-19
1.46591e-16
6.5861e-14
2.08236e-12
1.55989e-11
1.84604e-11
-7.54319e-14
-5.07295e-14
-1.82533e-22
1.34763e-20
6.35536e-19
1.30236e-16
5.91132e-14
1.95525e-12
1.50573e-11
1.84575e-11
-7.35892e-14
-4.05071e-14
2.4297e-23
1.0683e-20
1.21595e-18
-3.07456e-17
-1.07687e-15
7.66571e-14
1.04706e-12
1.7312e-12
-4.05187e-15
2.58503e-16
-5.07117e-23
-1.17207e-20
-1.2661e-19
-1.7766e-16
-3.12838e-14
-1.03155e-12
-8.99504e-12
-1.33178e-11
-2.58213e-15
-2.762e-13
9.18425e-23
2.13472e-20
1.6694e-17
-2.30596e-15
-4.2243e-13
-1.14289e-11
-8.40531e-11
-1.00902e-10
6.43201e-13
6.31223e-13
9.43366e-23
2.48099e-20
1.86411e-17
-2.54962e-15
-4.66868e-13
-1.25845e-11
-9.18007e-11
-1.0854e-10
7.85066e-13
1.46967e-13
6.27181e-23
1.87045e-20
1.83335e-17
-2.60341e-15
-4.7439e-13
-1.28245e-11
-9.35044e-11
-1.10386e-10
6.74494e-13
-5.65729e-13
5.49343e-23
9.07254e-21
1.80326e-17
-2.62347e-15
-4.83706e-13
-1.31589e-11
-9.62777e-11
-1.14537e-10
4.99337e-13
-9.76589e-13
6.69023e-23
-3.14888e-21
1.7729e-17
-2.61778e-15
-4.95713e-13
-1.36123e-11
-1.00271e-10
-1.21097e-10
3.43263e-13
-1.21646e-12
1.07603e-22
-1.7118e-20
1.74064e-17
-2.58372e-15
-5.08995e-13
-1.4139e-11
-1.05112e-10
-1.29441e-10
1.84466e-13
-1.40663e-12
2.27462e-22
-3.21427e-20
1.69705e-17
-2.50532e-15
-5.19424e-13
-1.46166e-11
-1.09883e-10
-1.38454e-10
-5.79709e-15
-1.44731e-12
2.76114e-22
-5.10612e-20
1.47075e-17
-2.30066e-15
-4.93604e-13
-1.41371e-11
-1.08143e-10
-1.40895e-10
-2.25021e-13
-1.38122e-12
-1.22667e-22
-3.51708e-20
-1.45306e-18
-8.80029e-17
-2.9427e-14
-1.17744e-12
-1.11414e-11
-1.77197e-11
-3.11475e-14
-6.11108e-13
1.74252e-23
1.98643e-20
1.50164e-18
2.0285e-15
2.41745e-13
7.64042e-12
7.09933e-11
1.22177e-10
2.32443e-11
-1.57698e-11
-1.83693e-22
-1.17662e-19
-4.31223e-17
1.84247e-14
2.37788e-12
6.64166e-11
5.38363e-10
7.52829e-10
1.6797e-11
2.11536e-10
-2.0573e-22
-1.35392e-19
-4.79783e-17
2.01487e-14
2.61117e-12
7.26926e-11
5.84067e-10
8.01891e-10
2.98371e-11
1.69799e-10
-1.93217e-22
-1.30329e-19
-4.76615e-17
2.05847e-14
2.66733e-12
7.43345e-11
5.96196e-10
8.16806e-10
3.91073e-11
1.05709e-10
-1.9698e-22
-1.32731e-19
-4.9053e-17
2.09199e-14
2.73833e-12
7.65898e-11
6.15333e-10
8.48807e-10
3.5006e-11
6.29033e-11
-2.15068e-22
-1.42071e-19
-5.19552e-17
2.1186e-14
2.82772e-12
7.95577e-11
6.42153e-10
8.98683e-10
2.32886e-11
3.79624e-11
-2.51018e-22
-1.56309e-19
-5.61096e-17
2.13416e-14
2.92749e-12
8.29865e-11
6.74445e-10
9.62003e-10
1.0662e-11
2.94356e-11
-3.27964e-22
-1.69834e-19
-6.11399e-17
2.12567e-14
3.01601e-12
8.62115e-11
7.067e-10
1.03086e-09
9.50477e-13
3.05744e-11
-3.55525e-22
-1.4764e-19
-5.94033e-17
2.02145e-14
2.92731e-12
8.45996e-11
7.0354e-10
1.06266e-09
-3.52369e-13
4.15202e-11
4.28618e-23
3.05469e-20
1.06494e-18
2.11455e-15
2.93437e-13
9.81446e-12
9.37305e-11
1.68754e-10
4.79324e-12
1.56077e-10
6.40231e-23
-3.38797e-19
-4.30693e-17
-1.40514e-14
-1.44871e-12
-4.7889e-11
-5.10613e-10
-1.10461e-09
6.95285e-09
-1.09067e-09
3.67284e-21
-2.23985e-18
-1.44993e-16
-1.03455e-13
-1.13096e-11
-3.40242e-10
-3.21399e-09
-5.66098e-09
3.08411e-08
1.24018e-08
4.04502e-21
-2.41305e-18
-1.52099e-16
-1.11986e-13
-1.23275e-11
-3.69785e-10
-3.46046e-09
-5.96052e-09
3.48158e-08
1.07165e-08
3.82492e-21
-2.44942e-18
-1.55118e-16
-1.14132e-13
-1.2603e-11
-3.78259e-10
-3.53137e-09
-6.06814e-09
3.38488e-08
7.28985e-09
3.80124e-21
-2.40455e-18
-1.48856e-16
-1.16084e-13
-1.2951e-11
-3.89783e-10
-3.64212e-09
-6.30636e-09
3.03803e-08
3.41508e-09
3.87257e-21
-2.2922e-18
-1.34311e-16
-1.17945e-13
-1.33829e-11
-4.04702e-10
-3.79558e-09
-6.67805e-09
2.58476e-08
-1.05165e-09
4.01674e-21
-2.12149e-18
-1.12379e-16
-1.19498e-13
-1.38637e-11
-4.21848e-10
-3.97972e-09
-7.15116e-09
2.10262e-08
-5.63208e-09
4.32719e-21
-1.89317e-18
-8.3173e-17
-1.2017e-13
-1.43029e-11
-4.38186e-10
-4.16547e-09
-7.67281e-09
1.62186e-08
-9.31276e-09
4.13993e-21
-1.68667e-18
-6.54892e-17
-1.1624e-13
-1.40319e-11
-4.33674e-10
-4.17951e-09
-8.00509e-09
1.14415e-08
-1.32134e-08
1.21448e-22
-2.9663e-19
-3.74368e-17
-1.63958e-14
-1.8682e-12
-6.35495e-11
-6.84819e-10
-1.54376e-09
2.40162e-09
-2.30036e-08
-3.54876e-21
2.51604e-18
3.78701e-16
7.4117e-14
7.10691e-12
2.61771e-10
3.44422e-09
1.18725e-08
3.50581e-07
7.06357e-07
-4.6033e-20
1.86428e-17
2.0881e-15
4.63772e-13
4.55125e-11
1.54969e-09
1.82696e-08
5.14694e-08
1.58538e-06
3.95086e-07
-5.04925e-20
2.0052e-17
2.21755e-15
4.9777e-13
4.92073e-11
1.67113e-09
1.95123e-08
5.4129e-08
1.72167e-06
5.86315e-07
-5.004e-20
2.02017e-17
2.23311e-15
5.05144e-13
5.02047e-11
1.70584e-09
1.98632e-08
5.45765e-08
1.65262e-06
8.64247e-07
-5.03323e-20
2.00669e-17
2.2163e-15
5.12272e-13
5.14517e-11
1.75259e-09
2.04161e-08
5.55081e-08
1.51749e-06
1.16417e-06
-5.09701e-20
1.97087e-17
2.17184e-15
5.195e-13
5.29819e-11
1.81256e-09
2.11828e-08
5.72188e-08
1.35336e-06
1.47515e-06
-5.18112e-20
1.91542e-17
2.10185e-15
5.26104e-13
5.46789e-11
1.88126e-09
2.21041e-08
5.96397e-08
1.18187e-06
1.75556e-06
-5.31656e-20
1.83842e-17
2.00435e-15
5.30278e-13
5.62472e-11
1.94727e-09
2.30455e-08
6.25092e-08
1.00806e-06
1.93954e-06
-5.09118e-20
1.71758e-17
1.88359e-15
5.17093e-13
5.54908e-11
1.93659e-09
2.32318e-08
6.44829e-08
8.00726e-07
2.10397e-06
-4.30311e-21
2.42598e-18
3.74145e-16
8.75561e-14
9.16727e-12
3.45114e-10
4.56109e-09
1.46362e-08
1.55133e-07
1.53593e-06
2.78887e-20
-9.47484e-18
-1.92728e-15
-3.06641e-13
-2.8306e-11
-1.20462e-09
-2.08681e-08
-3.61455e-08
8.11178e-06
-4.79211e-05
2.64443e-19
-6.72699e-17
-1.06794e-14
-1.63579e-12
-1.50424e-10
-6.02095e-09
-9.50838e-08
-9.60688e-08
3.30274e-05
-7.50436e-05
2.89522e-19
-7.20225e-17
-1.13053e-14
-1.73997e-12
-1.61149e-10
-6.43934e-09
-1.00693e-07
-8.63379e-08
3.51827e-05
-8.66226e-05
2.90736e-19
-7.1801e-17
-1.12888e-14
-1.75407e-12
-1.63647e-10
-6.54458e-09
-1.02064e-07
-1.02083e-07
3.37279e-05
-9.49927e-05
2.93316e-19
-7.09888e-17
-1.11855e-14
-1.7666e-12
-1.66685e-10
-6.68474e-09
-1.04397e-07
-1.35341e-07
3.15457e-05
-0.000101347
2.96795e-19
-6.98136e-17
-1.10189e-14
-1.77906e-12
-1.70378e-10
-6.86449e-09
-1.07702e-07
-1.80543e-07
2.9057e-05
-0.000106005
3.00678e-19
-6.83825e-17
-1.08015e-14
-1.79035e-12
-1.74462e-10
-7.07039e-09
-1.11692e-07
-2.32831e-07
2.6487e-05
-0.000108486
3.05038e-19
-6.67058e-17
-1.054e-14
-1.7976e-12
-1.78273e-10
-7.27059e-09
-1.15854e-07
-2.89597e-07
2.38904e-05
-0.000107089
2.93496e-19
-6.29749e-17
-1.0059e-14
-1.75673e-12
-1.76184e-10
-7.23955e-09
-1.17016e-07
-3.48937e-07
2.04358e-05
-0.000102948
3.28261e-20
-8.97463e-18
-1.9071e-15
-3.49336e-13
-3.52284e-11
-1.53566e-09
-2.6915e-08
-1.00241e-07
4.65561e-06
-4.65036e-05
-1.12025e-19
6.07127e-17
1.03902e-14
1.07971e-12
8.63535e-11
4.42282e-09
1.25232e-07
2.46144e-06
0.000146876
0.000972914
-8.98726e-19
3.84035e-16
5.3492e-14
4.92957e-12
3.79968e-10
1.86501e-08
4.9791e-07
9.14509e-06
0.000511345
0.00254032
-9.88149e-19
4.09417e-16
5.65048e-14
5.1982e-12
4.02724e-10
1.97734e-08
5.24538e-07
9.50576e-06
0.000533246
0.0025895
-1.00072e-18
4.06767e-16
5.61827e-14
5.19876e-12
4.05857e-10
1.99549e-08
5.25609e-07
9.22905e-06
0.000512298
0.00242925
-1.01742e-18
4.02364e-16
5.56091e-14
5.18808e-12
4.09199e-10
2.01748e-08
5.28138e-07
8.92809e-06
0.000486798
0.00224829
-1.03789e-18
3.97478e-16
5.49212e-14
5.17399e-12
4.13233e-10
2.04598e-08
5.33113e-07
8.65056e-06
0.000460676
0.00206788
-1.06022e-18
3.92603e-16
5.41853e-14
5.15868e-12
4.17735e-10
2.0792e-08
5.40387e-07
8.42197e-06
0.000434882
0.00189365
-1.08293e-18
3.88016e-16
5.34732e-14
5.14442e-12
4.22089e-10
2.1121e-08
5.48536e-07
8.23789e-06
0.000409624
0.00174054
-1.04915e-18
3.70971e-16
5.14794e-14
5.02007e-12
4.16074e-10
2.09321e-08
5.45086e-07
7.90564e-06
0.000372257
0.0015341
-1.40035e-19
5.95315e-17
1.03451e-14
1.15531e-12
1.00033e-10
5.25727e-09
1.43855e-07
2.13024e-06
9.85554e-05
0.000475743
-2.74094e-18
-7.90084e-16
-6.48284e-14
-3.48163e-12
-1.69187e-10
-8.42519e-09
-2.69354e-07
1.49237e-05
0.00136234
0.0155282
-1.74855e-17
-4.20407e-15
-2.88855e-13
-1.33204e-11
-5.86963e-10
-2.82945e-08
-8.92348e-07
5.78201e-05
0.00389537
0.0312654
-1.87081e-17
-4.46123e-15
-3.03455e-13
-1.39051e-11
-6.11796e-10
-2.96e-08
-9.3946e-07
5.98575e-05
0.00403135
0.0321746
-1.87018e-17
-4.44143e-15
-3.00955e-13
-1.37837e-11
-6.08471e-10
-2.97252e-08
-9.7392e-07
5.56685e-05
0.00390195
0.0315566
-1.86811e-17
-4.40874e-15
-2.97317e-13
-1.36069e-11
-6.02976e-10
-2.98258e-08
-1.02067e-06
5.03559e-05
0.00375849
0.0308609
-1.86848e-17
-4.3752e-15
-2.93403e-13
-1.3412e-11
-5.96615e-10
-2.99247e-08
-1.07508e-06
4.46311e-05
0.00362485
0.0302667
-1.87177e-17
-4.34518e-15
-2.89696e-13
-1.32241e-11
-5.9033e-10
-3.00293e-08
-1.13356e-06
3.8735e-05
0.0035028
0.0298102
-1.87813e-17
-4.32254e-15
-2.86783e-13
-1.30792e-11
-5.85607e-10
-3.0171e-08
-1.19363e-06
3.28837e-05
0.00339302
0.0294471
-1.82257e-17
-4.18041e-15
-2.78078e-13
-1.27408e-11
-5.73172e-10
-2.98555e-08
-1.23619e-06
2.55428e-05
0.00317478
0.0282622
-2.96397e-18
-8.14554e-16
-6.45267e-14
-3.44309e-12
-1.71659e-10
-9.3167e-09
-3.98089e-07
3.82527e-06
0.00100159
0.0132414
1.83075e-18
4.46381e-16
3.87416e-14
3.03459e-12
2.75269e-10
2.88557e-08
3.02229e-06
0.000240714
0.00975439
0.112511
5.80956e-18
9.98975e-16
7.35015e-14
7.03371e-12
7.53217e-10
8.48677e-08
9.36995e-06
0.000755312
0.0240341
0.195287
5.62814e-18
9.3201e-16
6.88838e-14
6.98057e-12
7.67571e-10
8.74211e-08
9.69965e-06
0.000781145
0.024776
0.199486
5.02938e-18
7.98473e-16
5.99029e-14
6.51285e-12
7.38298e-10
8.51357e-08
9.49138e-06
0.00076425
0.0244058
0.197617
4.30358e-18
6.36001e-16
4.89485e-14
5.92768e-12
6.99976e-10
8.20054e-08
9.22288e-06
0.000747117
0.0240929
0.196153
3.53457e-18
4.66383e-16
3.77691e-14
5.32939e-12
6.59262e-10
7.85671e-08
8.94045e-06
0.000732248
0.023888
0.195341
2.80462e-18
3.11346e-16
2.8079e-14
4.81419e-12
6.2173e-10
7.51849e-08
8.66484e-06
0.000720214
0.0237957
0.195221
2.20376e-18
1.93387e-16
2.15645e-14
4.47195e-12
5.92398e-10
7.21877e-08
8.41609e-06
0.000711897
0.0238257
0.195791
1.85979e-18
1.5016e-16
2.05237e-14
4.32719e-12
5.65095e-10
6.84872e-08
8.03015e-06
0.00068989
0.0233594
0.192696
1.00236e-18
2.1635e-16
1.95624e-14
1.89132e-12
2.00637e-10
2.30211e-08
2.57276e-06
0.000216317
0.00931917
0.110159
7.05183e-18
2.1142e-15
2.08251e-13
1.44273e-11
9.91134e-10
7.77808e-08
6.19965e-06
0.000377234
0.0125149
0.139415
3.84073e-17
9.74e-15
8.13501e-13
4.97229e-11
3.1887e-09
2.44364e-07
1.95489e-05
0.00115416
0.0298908
0.236464
4.0108e-17
1.00681e-14
8.31198e-13
5.05671e-11
3.25691e-09
2.51571e-07
2.02242e-05
0.00119285
0.0307706
0.24105
3.88799e-17
9.70478e-15
7.96661e-13
4.85161e-11
3.1521e-09
2.46074e-07
1.98972e-05
0.0011742
0.0304722
0.239799
3.73428e-17
9.24274e-15
7.5307e-13
4.59285e-11
3.01698e-09
2.3875e-07
1.94967e-05
0.00115772
0.0302968
0.239359
3.56373e-17
8.71926e-15
7.03432e-13
4.29762e-11
2.86222e-09
2.30397e-07
1.90803e-05
0.00114564
0.0302791
0.239856
3.38181e-17
8.15225e-15
6.49525e-13
3.97673e-11
2.69377e-09
2.21332e-07
1.86598e-05
0.00113805
0.0304137
0.241234
3.19633e-17
7.56601e-15
5.93825e-13
3.64528e-11
2.51946e-09
2.11933e-07
1.82486e-05
0.00113548
0.0307077
0.243475
2.9278e-17
6.81205e-15
5.27937e-13
3.26016e-11
2.30795e-09
1.99174e-07
1.75276e-05
0.00111355
0.0304708
0.241976
5.63493e-18
1.58847e-15
1.4817e-13
1.02707e-11
7.53275e-10
6.48995e-08
5.60645e-06
0.000361624
0.0126809
0.143059
9.9055e-18
3.28423e-15
3.59175e-13
2.6376e-11
1.7803e-09
1.28235e-07
8.9826e-06
0.000466923
0.0135912
0.145254
6.17529e-17
1.77275e-14
1.67578e-12
1.07553e-10
6.5132e-09
4.37053e-07
2.94269e-05
0.00142646
0.0321117
0.244544
6.65217e-17
1.9015e-14
1.78737e-12
1.14125e-10
6.88481e-09
4.60705e-07
3.08954e-05
0.00148595
0.0331388
0.249306
6.65173e-17
1.90373e-14
1.79053e-12
1.14421e-10
6.90914e-09
4.62434e-07
3.09263e-05
0.00147885
0.0329749
0.248468
6.64306e-17
1.90254e-14
1.79024e-12
1.14511e-10
6.92098e-09
4.6349e-07
3.09725e-05
0.00147809
0.0329812
0.24859
6.65222e-17
1.90543e-14
1.79323e-12
1.14793e-10
6.94298e-09
4.65319e-07
3.11231e-05
0.00148673
0.0331962
0.249752
6.68553e-17
1.91449e-14
1.80163e-12
1.15397e-10
6.98149e-09
4.68219e-07
3.13896e-05
0.00150496
0.0336133
0.251858
6.74909e-17
1.93158e-14
1.81737e-12
1.1644e-10
7.0418e-09
4.72372e-07
3.178e-05
0.00153361
0.0342405
0.254868