/*--------------------------------*- C++ -*----------------------------------*\
| =========                 |                                                 |
| \\      /  F ield         | OpenFOAM: The Open Source CFD Toolbox           |
|  \\    /   O peration     | Version:  1.7.x                                 |
|   \\  /    A nd           | Web:      www.OpenFOAM.com                      |
|    \\/     M anipulation  |                                                 |
\*---------------------------------------------------------------------------*/
FoamFile
{
    version     2.0;
    format      ascii;
    class       volScalarField;
    location    "0.1";
    object      conc;
}
// * * * * * * * * * * * * * * * * * * * * * * * * * * * * * * * * * * * * * //

dimensions      [0 -3 0 0 1 0 0];

internalField   nonuniform List<scalar> 
8000
(
3.39113e-55
3.24467e-46
5.45842e-38
1.09005e-30
4.75108e-28
3.29138e-26
6.00276e-25
2.40487e-24
4.04754e-25
-2.55001e-24
4.54396e-53
7.03117e-45
7.85326e-37
1.52556e-29
8.09799e-27
5.49808e-25
9.44903e-24
3.54322e-23
2.30927e-24
-4.25821e-23
5.02994e-53
7.63002e-45
8.65557e-37
1.71512e-29
9.07702e-27
6.1559e-25
1.05754e-23
3.98643e-23
5.50995e-24
-3.6251e-23
5.34564e-53
8.07595e-45
9.26499e-37
1.87685e-29
9.84097e-27
6.67879e-25
1.15116e-23
4.38936e-23
8.73959e-24
-2.80409e-23
5.94442e-53
8.88047e-45
1.01886e-36
2.10016e-29
1.10009e-26
7.48867e-25
1.29715e-23
5.01312e-23
1.28302e-23
-2.03091e-23
6.81065e-53
1.00083e-44
1.13891e-36
2.38155e-29
1.25528e-26
8.58583e-25
1.49552e-23
5.85561e-23
1.75977e-23
-1.31887e-23
7.93374e-53
1.14336e-44
1.28159e-36
2.71059e-29
1.44684e-26
9.95488e-25
1.7445e-23
6.91744e-23
2.29688e-23
-6.97909e-24
9.28067e-53
1.31204e-44
1.43956e-36
3.06514e-29
1.66651e-26
1.15462e-24
2.03682e-23
8.18199e-23
2.89211e-23
-1.6827e-24
9.9296e-53
1.40282e-44
1.50188e-36
3.22394e-29
1.77284e-26
1.23722e-24
2.20083e-23
8.97349e-23
3.25173e-23
7.48653e-25
1.94679e-54
7.36311e-46
1.14503e-37
2.5854e-30
1.17235e-27
8.35102e-26
1.57278e-24
6.7799e-24
2.86565e-24
1.21826e-25
8.14367e-47
-6.38176e-39
-4.28217e-31
-1.77103e-28
-3.74495e-26
-1.73324e-24
-2.36619e-23
-7.50267e-23
-8.22903e-24
4.71786e-23
5.40376e-45
6.75809e-38
-7.98111e-30
-2.58492e-27
-6.60766e-25
-2.995e-23
-3.84182e-22
-1.13972e-21
-3.29409e-23
8.43022e-22
5.87749e-45
4.99061e-38
-9.01271e-30
-2.91398e-27
-7.42159e-25
-3.35969e-23
-4.30753e-22
-1.28372e-21
-1.09475e-22
7.14295e-22
6.1893e-45
4.10811e-38
-9.84978e-30
-3.18964e-27
-8.03811e-25
-3.64078e-23
-4.68455e-22
-1.41184e-21
-1.87034e-22
5.47374e-22
6.82253e-45
4.03484e-38
-1.10809e-29
-3.5724e-27
-8.98173e-25
-4.07958e-23
-5.27637e-22
-1.61171e-21
-2.853e-22
3.91497e-22
7.75746e-45
4.59688e-38
-1.27007e-29
-4.05483e-27
-1.02489e-24
-4.67578e-23
-6.08169e-22
-1.88176e-21
-3.98862e-22
2.48604e-22
8.98773e-45
5.94307e-38
-1.46777e-29
-4.61854e-27
-1.1816e-24
-5.42239e-23
-7.09735e-22
-2.22422e-21
-5.26478e-22
1.24303e-22
1.0483e-44
8.46165e-38
-1.69244e-29
-5.2268e-27
-1.36189e-24
-6.29454e-23
-8.2979e-22
-2.63556e-21
-6.68212e-22
1.77126e-23
1.12837e-44
1.28379e-37
-1.79609e-29
-5.48962e-27
-1.44657e-24
-6.73589e-23
-8.95936e-22
-2.88993e-21
-7.51729e-22
-2.91658e-23
2.52532e-46
-1.27901e-38
-1.07385e-30
-4.23823e-28
-9.24092e-26
-4.39093e-24
-6.19566e-23
-2.11383e-22
-6.51725e-23
-2.88174e-24
1.06031e-38
4.33715e-32
7.29295e-29
1.44129e-26
2.01189e-24
6.94976e-23
7.52663e-22
1.93942e-21
1.23975e-22
-7.37448e-22
3.6454e-37
-1.24052e-30
1.39685e-27
2.10931e-25
3.58037e-23
1.20894e-21
1.22697e-20
2.95347e-20
1.30843e-23
-1.37562e-20
3.9545e-37
-1.18702e-30
1.58908e-27
2.39425e-25
4.04888e-23
1.36531e-21
1.38463e-20
3.34499e-20
1.46869e-21
-1.16214e-20
4.16261e-37
-1.19132e-30
1.73931e-27
2.62569e-25
4.39043e-23
1.48157e-21
1.50814e-20
3.68363e-20
2.96702e-21
-8.81233e-21
4.56161e-37
-1.33086e-30
1.95814e-27
2.94275e-25
4.90634e-23
1.66063e-21
1.69958e-20
4.20749e-20
4.86575e-21
-6.18982e-21
5.13737e-37
-1.60162e-30
2.24486e-27
3.34038e-25
5.59678e-23
1.90286e-21
1.95884e-20
4.91214e-20
7.03429e-21
-3.79095e-21
5.88144e-37
-2.03165e-30
2.5932e-27
3.80219e-25
6.4489e-23
2.20611e-21
2.28606e-20
5.80786e-20
9.45083e-21
-1.7083e-21
6.76819e-37
-2.66714e-30
2.98498e-27
4.29391e-25
7.42183e-23
2.55856e-21
2.67163e-20
6.88308e-20
1.21152e-20
8.9789e-23
7.19819e-37
-3.38583e-30
3.14576e-27
4.48145e-25
7.8351e-23
2.72288e-21
2.87064e-20
7.51781e-20
1.36058e-20
8.30111e-22
2.48772e-38
8.36095e-32
1.8392e-28
3.44949e-26
4.95683e-24
1.75931e-22
1.97112e-21
5.46786e-21
1.20169e-21
5.88908e-23
-9.17231e-32
-8.07468e-30
-5.95608e-27
-7.7561e-25
-8.13558e-23
-2.24434e-21
-2.00175e-20
-4.28269e-20
-1.11097e-21
1.01508e-20
-4.35721e-30
2.24302e-28
-1.12604e-25
-1.10177e-23
-1.42035e-21
-3.82448e-20
-3.18459e-19
-6.35748e-19
1.64203e-20
1.93525e-19
-4.94138e-30
2.18374e-28
-1.29176e-25
-1.26127e-23
-1.62059e-21
-4.35742e-20
-3.62441e-19
-7.25418e-19
-6.07353e-21
1.62754e-19
-5.38011e-30
2.19496e-28
-1.41798e-25
-1.38874e-23
-1.76352e-21
-4.74608e-20
-3.96344e-19
-8.01903e-19
-3.01962e-20
1.21764e-19
-6.10228e-30
2.44973e-28
-1.59798e-25
-1.55864e-23
-1.97327e-21
-5.32792e-20
-4.47531e-19
-9.17882e-19
-6.07698e-20
8.32524e-20
-7.12587e-30
2.9439e-28
-1.8317e-25
-1.76847e-23
-2.2504e-21
-6.10517e-20
-5.16033e-19
-1.07235e-18
-9.51235e-20
4.79917e-20
-8.46055e-30
3.72559e-28
-2.11295e-25
-2.00876e-23
-2.58964e-21
-7.07175e-20
-6.02029e-19
-1.26809e-18
-1.32765e-19
1.74173e-20
-1.00543e-29
4.87195e-28
-2.42362e-25
-2.25844e-23
-2.97105e-21
-8.1809e-20
-7.02273e-19
-1.50131e-18
-1.73569e-19
-9.19379e-21
-1.08399e-29
6.08602e-28
-2.53374e-25
-2.33827e-23
-3.11266e-21
-8.64537e-20
-7.49988e-19
-1.63175e-18
-1.95222e-19
-1.91157e-20
-2.77312e-31
-1.58657e-29
-1.50004e-26
-1.85231e-24
-2.00274e-22
-5.68355e-21
-5.25305e-20
-1.21166e-19
-1.83603e-20
-1.08014e-21
1.57937e-29
6.94102e-28
3.13777e-25
2.99979e-23
2.56224e-21
5.89163e-20
4.43407e-19
7.95162e-19
-5.63296e-21
-1.18098e-19
7.53872e-28
-1.76209e-26
5.72501e-24
4.00464e-22
4.25784e-20
9.52419e-19
6.65418e-18
1.10907e-17
-5.69685e-19
-2.22424e-18
8.60928e-28
-1.74335e-26
6.60714e-24
4.61212e-22
4.88885e-20
1.09183e-18
7.61682e-18
1.27138e-17
-3.06592e-19
-1.8433e-18
9.39684e-28
-1.75668e-26
7.27416e-24
5.10199e-22
5.34133e-20
1.19435e-18
8.36898e-18
1.41238e-17
-1.20912e-21
-1.34845e-18
1.06685e-27
-1.96044e-26
8.20664e-24
5.73771e-22
5.98795e-20
1.34393e-18
9.47823e-18
1.62237e-17
3.86067e-19
-8.80254e-19
1.24532e-27
-2.3535e-26
9.40319e-24
6.50726e-22
6.82874e-20
1.5408e-18
1.09433e-17
1.89914e-17
8.12101e-19
-4.5086e-19
1.47565e-27
-2.97092e-26
1.08283e-23
7.37386e-22
7.84751e-20
1.7835e-18
1.27689e-17
2.24828e-17
1.26659e-18
-7.90319e-20
1.74701e-27
-3.86661e-26
1.23783e-23
8.25277e-22
8.97723e-20
2.0588e-18
1.48769e-17
2.66184e-17
1.74755e-18
2.48371e-19
1.86986e-27
-4.76379e-26
1.28709e-23
8.50104e-22
9.36283e-20
2.16773e-18
1.5849e-17
2.89119e-17
2.00177e-18
3.54581e-19
4.80519e-29
1.37529e-27
7.88548e-25
7.15081e-23
6.30785e-21
1.49505e-19
1.16905e-18
2.26761e-18
2.18897e-19
1.73882e-20
-1.47667e-27
-3.29e-26
-1.16987e-23
-8.863e-22
-6.65386e-20
-1.31983e-18
-8.53646e-18
-1.29624e-17
4.99984e-19
1.22755e-18
-7.01526e-26
1.08837e-24
-2.02561e-22
-1.06243e-20
-1.01917e-18
-1.95563e-17
-1.16358e-16
-1.633e-16
1.33342e-17
2.25773e-17
-8.06644e-26
1.11297e-24
-2.34297e-22
-1.22682e-20
-1.17372e-18
-2.24835e-17
-1.3353e-16
-1.87531e-16
1.10194e-17
1.81596e-17
-8.82296e-26
1.14016e-24
-2.58525e-22
-1.36424e-20
-1.28732e-18
-2.47043e-17
-1.47519e-16
-2.09673e-16
7.839e-18
1.27339e-17
-1.00243e-25
1.27571e-24
-2.92025e-22
-1.53785e-20
-1.44636e-18
-2.78821e-17
-1.67785e-16
-2.42193e-16
3.81619e-18
7.55625e-18
-1.16968e-25
1.51934e-24
-3.34653e-22
-1.74299e-20
-1.65016e-18
-3.20112e-17
-1.94263e-16
-2.84721e-16
-4.59417e-19
2.79711e-18
-1.38367e-25
1.88801e-24
-3.85187e-22
-1.96932e-20
-1.8948e-18
-3.70608e-17
-2.27039e-16
-3.38212e-16
-4.79831e-18
-1.32255e-18
-1.63271e-25
2.40585e-24
-4.3981e-22
-2.19283e-20
-2.16337e-18
-4.27426e-17
-2.64651e-16
-4.0142e-16
-9.18719e-18
-5.02148e-18
-1.73637e-25
2.87698e-24
-4.57082e-22
-2.25467e-20
-2.2549e-18
-4.50271e-17
-2.82573e-16
-4.38003e-16
-1.16312e-17
-5.99354e-18
-4.50936e-27
-6.09814e-26
-2.94409e-23
-2.10678e-21
-1.64011e-19
-3.36405e-18
-2.27082e-17
-3.75378e-17
-1.93406e-18
-2.67504e-19
7.98713e-26
1.05627e-24
3.45475e-22
2.07385e-20
1.47672e-18
2.59574e-17
1.45539e-16
1.85017e-16
-1.2499e-17
-9.80902e-18
3.66272e-24
-4.52624e-23
5.6372e-21
2.12446e-19
2.0296e-17
3.41878e-16
1.73568e-15
2.0079e-15
-2.29571e-16
-1.71624e-16
4.21329e-24
-4.74927e-23
6.5223e-21
2.45192e-19
2.33937e-17
3.9338e-16
1.99312e-15
2.30587e-15
-2.18108e-16
-1.28647e-16
4.6082e-24
-4.92878e-23
7.20698e-21
2.74309e-19
2.57594e-17
4.34483e-16
2.2181e-15
2.60454e-15
-1.93441e-16
-8.11878e-17
5.23407e-24
-5.52639e-23
8.14987e-21
3.10077e-19
2.90194e-17
4.92418e-16
2.53952e-15
3.03807e-15
-1.62581e-16
-3.53453e-17
6.1032e-24
-6.54052e-23
9.34363e-21
3.51175e-19
3.3149e-17
5.66978e-16
2.95631e-15
3.60244e-15
-1.32151e-16
6.9459e-18
7.21284e-24
-8.0269e-23
1.07577e-20
3.95362e-19
3.80684e-17
6.57576e-16
3.46985e-15
4.31227e-15
-1.0502e-16
4.36746e-17
8.50192e-24
-1.00592e-22
1.22877e-20
4.37597e-19
4.34308e-17
7.58981e-16
4.05729e-15
5.15206e-15
-8.11842e-17
7.78344e-17
9.04062e-24
-1.17533e-22
1.27965e-20
4.50396e-19
4.53751e-17
8.02722e-16
4.36057e-15
5.6806e-15
-6.61409e-17
8.43456e-17
2.44776e-25
1.763e-24
8.72646e-22
4.91162e-20
3.65164e-18
6.67166e-17
3.93354e-16
5.50897e-16
6.80368e-18
3.6796e-18
-3.93842e-24
-1.77772e-23
-7.49508e-21
-3.70811e-19
-2.79356e-17
-4.44914e-16
-2.17191e-15
-2.29692e-15
2.41095e-16
6.03652e-17
-1.74091e-22
1.70508e-21
-1.19471e-19
-2.98087e-18
-3.3665e-16
-5.04102e-15
-2.15388e-14
-1.98809e-14
3.48058e-15
1.02922e-15
-2.00343e-22
1.82738e-21
-1.37849e-19
-3.42955e-18
-3.87673e-16
-5.79571e-15
-2.47175e-14
-2.28334e-14
3.53182e-15
6.0368e-16
-2.19098e-22
1.92367e-21
-1.52166e-19
-3.87364e-18
-4.28777e-16
-6.44658e-15
-2.78482e-14
-2.63574e-14
3.41477e-15
2.03927e-16
-2.48807e-22
2.1631e-21
-1.72206e-19
-4.39635e-18
-4.84813e-16
-7.35447e-15
-3.22728e-14
-3.14109e-14
3.27918e-15
-1.94084e-16
-2.89923e-22
2.54393e-21
-1.97832e-19
-4.96986e-18
-5.55276e-16
-8.51638e-15
-3.79845e-14
-3.79664e-14
3.19422e-15
-5.66286e-16
-3.42321e-22
3.08116e-21
-2.28592e-19
-5.55613e-18
-6.38788e-16
-9.92282e-15
-4.50072e-14
-4.62339e-14
3.2008e-15
-8.94999e-16
-4.03341e-22
3.79332e-21
-2.62476e-19
-6.07943e-18
-7.29522e-16
-1.14948e-14
-5.30464e-14
-5.60671e-14
3.29834e-15
-1.22131e-15
-4.2919e-22
4.34379e-21
-2.75254e-19
-6.26683e-18
-7.66342e-16
-1.22566e-14
-5.77425e-14
-6.30579e-14
3.34494e-15
-1.25595e-15
-1.21431e-23
-1.31601e-23
-1.92075e-20
-8.71376e-19
-6.95253e-17
-1.16089e-15
-6.04095e-15
-7.21257e-15
1.81858e-16
-5.52893e-17
1.13606e-22
-2.6051e-22
1.31869e-19
4.2926e-18
4.44981e-16
6.60636e-15
2.78836e-14
2.30495e-14
-3.34477e-15
-1.03185e-17
5.08179e-21
-4.93924e-20
2.13653e-18
1.83642e-17
4.56165e-15
6.11838e-14
2.07593e-13
1.26159e-13
-3.88646e-14
-2.57403e-16
5.82063e-21
-5.40205e-20
2.45406e-18
2.0713e-17
5.24005e-15
7.02146e-14
2.38209e-13
1.45976e-13
-4.05773e-14
2.68271e-15
6.35083e-21
-5.7616e-20
2.7027e-18
2.42859e-17
5.83077e-15
7.90665e-14
2.76025e-13
1.81282e-13
-4.09082e-14
4.75608e-15
7.20613e-21
-6.49351e-20
3.06105e-18
2.78902e-17
6.63213e-15
9.13444e-14
3.2906e-13
2.31109e-13
-4.15707e-14
7.00585e-15
8.39512e-21
-7.59137e-20
3.52746e-18
3.11028e-17
7.63746e-15
1.07028e-13
3.97315e-13
2.953e-13
-4.31508e-14
9.20639e-15
9.92023e-21
-9.08432e-20
4.09768e-18
3.34596e-17
8.8269e-15
1.26e-13
4.813e-13
3.76774e-13
-4.61345e-14
1.12654e-14
1.17187e-20
-1.09992e-19
4.7425e-18
3.43216e-17
1.01219e-14
1.47284e-13
5.78107e-13
4.74975e-13
-5.05667e-14
1.35781e-14
1.25467e-20
-1.23513e-19
5.02194e-18
3.52633e-17
1.07338e-14
1.59326e-13
6.44628e-13
5.57273e-13
-5.36415e-14
1.37213e-14
3.55755e-22
-1.48659e-21
3.46423e-19
9.82437e-18
1.12085e-15
1.77157e-14
8.18926e-14
8.09012e-14
-4.7413e-15
6.70779e-16
-3.21551e-21
2.69651e-20
-1.65236e-18
-6.98555e-18
-5.91038e-15
-8.26046e-14
-2.87564e-13
-1.5755e-13
4.1758e-14
-5.70763e-15
-1.37332e-19
1.32592e-18
-3.28322e-17
3.61805e-16
-4.85625e-14
-5.51281e-13
-1.04586e-12
3.44863e-13
3.48445e-13
-8.14496e-14
-1.56098e-19
1.47512e-18
-3.75301e-17
4.25487e-16
-5.55945e-14
-6.31937e-13
-1.21466e-12
3.42716e-13
3.6609e-13
-1.03567e-13
-1.69815e-19
1.59097e-18
-4.10781e-17
4.59117e-16
-6.25905e-14
-7.34185e-13
-1.60084e-12
4.66345e-14
3.82767e-13
-1.12259e-13
-1.92477e-19
1.79783e-18
-4.65454e-17
5.18724e-16
-7.20758e-14
-8.75611e-13
-2.13703e-12
-3.54525e-13
4.07303e-13
-1.25227e-13
-2.24196e-19
2.09481e-18
-5.39872e-17
6.09147e-16
-8.39927e-14
-1.05614e-12
-2.82194e-12
-8.57161e-13
4.44114e-13
-1.39822e-13
-2.65184e-19
2.48717e-18
-6.34485e-17
7.33394e-16
-9.81105e-14
-1.27488e-12
-3.66656e-12
-1.50051e-12
4.99064e-13
-1.55689e-13
-3.14361e-19
2.97507e-18
-7.46233e-17
8.87777e-16
-1.13588e-13
-1.52265e-12
-4.65427e-12
-2.29578e-12
5.73517e-13
-1.76892e-13
-3.39692e-19
3.28816e-18
-8.00976e-17
9.45474e-16
-1.22371e-13
-1.69273e-12
-5.49804e-12
-3.15212e-12
6.3753e-13
-1.80195e-13
-1.01561e-20
8.991e-20
-4.68632e-18
-3.33255e-18
-1.523e-14
-2.33641e-13
-9.50187e-13
-7.57182e-13
8.19148e-14
-1.10653e-14
4.80477e-20
-6.84305e-19
1.94031e-17
-6.95566e-16
4.61513e-14
6.0783e-13
1.41556e-12
-2.16415e-13
-2.51772e-13
5.71051e-14
1.94259e-18
-2.15954e-17
4.12477e-16
-8.69851e-15
2.55403e-13
1.44916e-12
-1.01874e-11
-2.20026e-11
-7.26363e-13
7.37808e-13
2.19546e-18
-2.43228e-17
4.72254e-16
-1.00077e-14
2.91522e-13
1.6909e-12
-1.11363e-11
-2.40883e-11
-7.02725e-13
8.02134e-13
2.38622e-18
-2.64515e-17
5.183e-16
-1.11703e-14
3.40324e-13
2.4227e-12
-8.71745e-12
-2.26564e-11
-8.62657e-13
7.94888e-13
2.70466e-18
-2.99877e-17
5.89819e-16
-1.28504e-14
4.0667e-13
3.43141e-12
-5.44092e-12
-2.09936e-11
-1.08334e-12
8.23778e-13
3.1519e-18
-3.49495e-17
6.88382e-16
-1.50735e-14
4.90243e-13
4.71206e-12
-1.3683e-12
-1.91807e-11
-1.3769e-12
8.73769e-13
3.73224e-18
-4.14044e-17
8.15033e-16
-1.78342e-14
5.89557e-13
6.26806e-12
3.66576e-12
-1.68255e-11
-1.79183e-12
9.46658e-13
4.43607e-18
-4.92758e-17
9.66034e-16
-2.10149e-14
6.9981e-13
8.06408e-12
9.75918e-12
-1.36256e-11
-2.35591e-12
1.06306e-12
4.83159e-18
-5.39498e-17
1.04405e-15
-2.27294e-14
7.78495e-13
9.66899e-12
1.70627e-11
-7.80859e-12
-2.99866e-12
1.11391e-12
1.53067e-19
-2.13258e-18
5.84399e-17
-1.93093e-15
1.24875e-13
1.9485e-12
6.77851e-12
3.68924e-12
-6.89817e-13
9.10497e-14
7.07441e-21
-1.8112e-19
8.06068e-18
8.57481e-16
-1.55576e-13
-1.25614e-12
3.26446e-12
1.19275e-11
3.22185e-13
-1.00608e-13
-3.60439e-19
1.01274e-17
-3.92649e-16
1.19198e-14
-8.36682e-14
1.72771e-11
1.76951e-10
2.1834e-10
-3.15246e-12
-1.47264e-12
-3.82458e-19
1.10255e-17
-4.46376e-16
1.36433e-14
-1.02315e-13
1.91691e-11
1.96028e-10
2.39297e-10
-3.91625e-12
-1.43873e-12
-4.10059e-19
1.19432e-17
-4.92739e-16
1.58267e-14
-2.57068e-13
1.71413e-11
1.90375e-10
2.36639e-10
-3.96379e-12
-1.2285e-12
-4.77092e-19
1.38926e-17
-5.76785e-16
1.90691e-14
-4.69012e-13
1.43729e-11
1.83533e-10
2.364e-10
-4.03239e-12
-1.11393e-12
-5.86199e-19
1.69505e-17
-7.02406e-16
2.34519e-14
-7.35902e-13
1.09469e-11
1.76191e-10
2.39221e-10
-4.16917e-12
-1.03838e-12
-7.46887e-19
2.13274e-17
-8.75786e-16
2.90498e-14
-1.05448e-12
6.77498e-12
1.67128e-10
2.42756e-10
-4.27075e-12
-9.92507e-13
-9.68878e-19
2.7221e-17
-1.10057e-15
3.58052e-14
-1.41739e-12
1.71311e-12
1.54291e-10
2.44317e-10
-4.18546e-12
-1.02024e-12
-1.17398e-18
3.21155e-17
-1.24622e-15
4.05524e-14
-1.77682e-12
-5.34172e-12
1.22004e-10
2.22857e-10
-3.41196e-12
-9.9475e-13
5.11231e-22
1.72058e-19
-1.52794e-17
3.04905e-15
-4.81681e-13
-6.47854e-12
-1.67764e-11
-6.15952e-13
9.23521e-13
-6.59779e-14
3.70322e-22
4.23063e-19
-1.61648e-16
1.8536e-15
2.59788e-13
-5.67586e-12
-9.22279e-11
-1.45998e-10
-4.23739e-14
9.62889e-13
-2.89592e-20
2.17649e-18
-1.98589e-17
-6.43492e-15
-5.84412e-12
-2.14845e-10
-1.62103e-09
-1.80354e-09
1.80456e-11
1.14966e-11
-2.34619e-20
2.08884e-18
-2.09566e-17
-7.37505e-15
-6.51e-12
-2.38723e-10
-1.79024e-09
-1.96924e-09
2.25639e-11
1.07123e-11
-2.02168e-20
2.09262e-18
-4.3912e-17
-1.02208e-14
-6.13276e-12
-2.35727e-10
-1.79294e-09
-1.97827e-09
2.37921e-11
8.50689e-12
-1.72572e-20
1.91119e-18
-4.22084e-17
-1.40081e-14
-5.60227e-12
-2.31807e-10
-1.80562e-09
-2.02099e-09
2.50432e-11
7.06727e-12
-1.21185e-20
1.38226e-18
-6.57493e-18
-1.90498e-14
-4.94179e-12
-2.27729e-10
-1.83339e-09
-2.10108e-09
2.70888e-11
5.97675e-12
-2.62063e-21
2.80786e-19
8.38838e-17
-2.58251e-14
-4.14279e-12
-2.22584e-10
-1.86746e-09
-2.20389e-09
2.98768e-11
5.1398e-12
1.29853e-20
-1.57581e-18
2.55242e-16
-3.48193e-14
-3.16119e-12
-2.14052e-10
-1.88902e-09
-2.30854e-09
3.28926e-11
4.77433e-12
2.65628e-20
-3.1995e-18
3.85149e-16
-4.31813e-14
-1.53802e-12
-1.83039e-10
-1.7491e-09
-2.24385e-09
3.34062e-11
4.35191e-12
7.64645e-22
7.91258e-19
-3.28781e-16
3.00179e-15
1.48645e-12
1.19688e-11
-3.57005e-11
-1.29773e-10
2.77341e-13
2.68479e-13
1.28936e-20
4.66645e-18
4.37126e-16
-2.14914e-15
2.27611e-12
1.09488e-10
1.01899e-09
1.44075e-09
-6.34404e-13
-2.36116e-11
-8.68263e-20
6.51062e-18
-1.32074e-15
1.51376e-13
6.03633e-11
1.72533e-09
1.22859e-08
1.36833e-08
-5.87585e-11
-3.06218e-10
-9.17166e-20
7.87891e-18
-1.49486e-15
1.69242e-13
6.7063e-11
1.90958e-09
1.34989e-08
1.48453e-08
-8.26278e-11
-2.68658e-10
-8.82913e-20
9.94254e-18
-1.2696e-15
1.73366e-13
6.70927e-11
1.92914e-09
1.36774e-08
1.50334e-08
-8.38183e-11
-1.99111e-10
-9.32237e-20
1.17593e-17
-9.71715e-16
1.7178e-13
6.69974e-11
1.95726e-09
1.39902e-08
1.55215e-08
-7.81284e-11
-1.46386e-10
-1.05904e-19
1.34536e-17
-6.18425e-16
1.66111e-13
6.69473e-11
1.99889e-09
1.44676e-08
1.63277e-08
-7.45861e-11
-1.04538e-10
-1.27592e-19
1.47133e-17
-2.45095e-16
1.57556e-13
6.67651e-11
2.04695e-09
1.50503e-08
1.73587e-08
-7.43165e-11
-7.11203e-11
-1.64936e-19
1.41392e-17
1.13835e-16
1.46591e-13
6.5861e-11
2.08236e-09
1.55989e-08
1.84604e-08
-7.54319e-11
-5.07295e-11
-1.82533e-19
1.34763e-17
6.35536e-16
1.30236e-13
5.91132e-11
1.95525e-09
1.50573e-08
1.84575e-08
-7.35892e-11
-4.05071e-11
2.4297e-20
1.0683e-17
1.21595e-15
-3.07456e-14
-1.07687e-12
7.66571e-11
1.04706e-09
1.7312e-09
-4.05187e-12
2.58503e-13
-5.07117e-20
-1.17207e-17
-1.2661e-16
-1.7766e-13
-3.12838e-11
-1.03155e-09
-8.99504e-09
-1.33178e-08
-2.58213e-12
-2.762e-10
9.18425e-20
2.13472e-17
1.6694e-14
-2.30596e-12
-4.2243e-10
-1.14289e-08
-8.40531e-08
-1.00902e-07
6.43201e-10
6.31223e-10
9.43366e-20
2.48099e-17
1.86411e-14
-2.54962e-12
-4.66868e-10
-1.25845e-08
-9.18007e-08
-1.0854e-07
7.85066e-10
1.46967e-10
6.27181e-20
1.87045e-17
1.83335e-14
-2.60341e-12
-4.7439e-10
-1.28245e-08
-9.35044e-08
-1.10386e-07
6.74494e-10
-5.65729e-10
5.49343e-20
9.07254e-18
1.80326e-14
-2.62347e-12
-4.83706e-10
-1.31589e-08
-9.62777e-08
-1.14537e-07
4.99337e-10
-9.76589e-10
6.69023e-20
-3.14888e-18
1.7729e-14
-2.61778e-12
-4.95713e-10
-1.36123e-08
-1.00271e-07
-1.21097e-07
3.43263e-10
-1.21646e-09
1.07603e-19
-1.7118e-17
1.74064e-14
-2.58372e-12
-5.08995e-10
-1.4139e-08
-1.05112e-07
-1.29441e-07
1.84466e-10
-1.40663e-09
2.27462e-19
-3.21427e-17
1.69705e-14
-2.50532e-12
-5.19424e-10
-1.46166e-08
-1.09883e-07
-1.38454e-07
-5.79709e-12
-1.44731e-09
2.76114e-19
-5.10612e-17
1.47075e-14
-2.30066e-12
-4.93604e-10
-1.41371e-08
-1.08143e-07
-1.40895e-07
-2.25021e-10
-1.38122e-09
-1.22667e-19
-3.51708e-17
-1.45306e-15
-8.80029e-14
-2.9427e-11
-1.17744e-09
-1.11414e-08
-1.77197e-08
-3.11475e-11
-6.11108e-10
1.74252e-20
1.98643e-17
1.50164e-15
2.0285e-12
2.41745e-10
7.64042e-09
7.09933e-08
1.22177e-07
2.32443e-08
-1.57698e-08
-1.83693e-19
-1.17662e-16
-4.31223e-14
1.84247e-11
2.37788e-09
6.64166e-08
5.38363e-07
7.52829e-07
1.6797e-08
2.11536e-07
-2.0573e-19
-1.35392e-16
-4.79783e-14
2.01487e-11
2.61117e-09
7.26926e-08
5.84067e-07
8.01891e-07
2.98371e-08
1.69799e-07
-1.93217e-19
-1.30329e-16
-4.76615e-14
2.05847e-11
2.66733e-09
7.43345e-08
5.96196e-07
8.16806e-07
3.91073e-08
1.05709e-07
-1.9698e-19
-1.32731e-16
-4.9053e-14
2.09199e-11
2.73833e-09
7.65898e-08
6.15333e-07
8.48807e-07
3.5006e-08
6.29033e-08
-2.15068e-19
-1.42071e-16
-5.19552e-14
2.1186e-11
2.82772e-09
7.95577e-08
6.42153e-07
8.98683e-07
2.32886e-08
3.79624e-08
-2.51018e-19
-1.56309e-16
-5.61096e-14
2.13416e-11
2.92749e-09
8.29865e-08
6.74445e-07
9.62003e-07
1.0662e-08
2.94356e-08
-3.27964e-19
-1.69834e-16
-6.11399e-14
2.12567e-11
3.01601e-09
8.62115e-08
7.067e-07
1.03086e-06
9.50477e-10
3.05744e-08
-3.55525e-19
-1.4764e-16
-5.94033e-14
2.02145e-11
2.92731e-09
8.45996e-08
7.0354e-07
1.06266e-06
-3.52369e-10
4.15202e-08
4.28618e-20
3.05469e-17
1.06494e-15
2.11455e-12
2.93437e-10
9.81446e-09
9.37305e-08
1.68754e-07
4.79324e-09
1.56077e-07
6.40231e-20
-3.38797e-16
-4.30693e-14
-1.40514e-11
-1.44871e-09
-4.7889e-08
-5.10613e-07
-1.10461e-06
6.95285e-06
-1.09067e-06
3.67284e-18
-2.23985e-15
-1.44993e-13
-1.03455e-10
-1.13096e-08
-3.40242e-07
-3.21399e-06
-5.66098e-06
3.08411e-05
1.24018e-05
4.04502e-18
-2.41305e-15
-1.52099e-13
-1.11986e-10
-1.23275e-08
-3.69785e-07
-3.46046e-06
-5.96052e-06
3.48158e-05
1.07165e-05
3.82492e-18
-2.44942e-15
-1.55118e-13
-1.14132e-10
-1.2603e-08
-3.78259e-07
-3.53137e-06
-6.06814e-06
3.38488e-05
7.28985e-06
3.80124e-18
-2.40455e-15
-1.48856e-13
-1.16084e-10
-1.2951e-08
-3.89783e-07
-3.64212e-06
-6.30636e-06
3.03803e-05
3.41508e-06
3.87257e-18
-2.2922e-15
-1.34311e-13
-1.17945e-10
-1.33829e-08
-4.04702e-07
-3.79558e-06
-6.67805e-06
2.58476e-05
-1.05165e-06
4.01674e-18
-2.12149e-15
-1.12379e-13
-1.19498e-10
-1.38637e-08
-4.21848e-07
-3.97972e-06
-7.15116e-06
2.10262e-05
-5.63208e-06
4.32719e-18
-1.89317e-15
-8.3173e-14
-1.2017e-10
-1.43029e-08
-4.38186e-07
-4.16547e-06
-7.67281e-06
1.62186e-05
-9.31276e-06
4.13993e-18
-1.68667e-15
-6.54892e-14
-1.1624e-10
-1.40319e-08
-4.33674e-07
-4.17951e-06
-8.00509e-06
1.14415e-05
-1.32134e-05
1.21448e-19
-2.9663e-16
-3.74368e-14
-1.63958e-11
-1.8682e-09
-6.35495e-08
-6.84819e-07
-1.54376e-06
2.40162e-06
-2.30036e-05
-3.54876e-18
2.51604e-15
3.78701e-13
7.4117e-11
7.10691e-09
2.61771e-07
3.44422e-06
1.18725e-05
0.000350581
0.000706357
-4.6033e-17
1.86428e-14
2.0881e-12
4.63772e-10
4.55125e-08
1.54969e-06
1.82696e-05
5.14694e-05
0.00158538
0.000395086
-5.04925e-17
2.0052e-14
2.21755e-12
4.9777e-10
4.92073e-08
1.67113e-06
1.95123e-05
5.4129e-05
0.00172167
0.000586315
-5.004e-17
2.02017e-14
2.23311e-12
5.05144e-10
5.02047e-08
1.70584e-06
1.98632e-05
5.45765e-05
0.00165262
0.000864247
-5.03323e-17
2.00669e-14
2.2163e-12
5.12272e-10
5.14517e-08
1.75259e-06
2.04161e-05
5.55081e-05
0.00151749
0.00116417
-5.09701e-17
1.97087e-14
2.17184e-12
5.195e-10
5.29819e-08
1.81256e-06
2.11828e-05
5.72188e-05
0.00135336
0.00147515
-5.18112e-17
1.91542e-14
2.10185e-12
5.26104e-10
5.46789e-08
1.88126e-06
2.21041e-05
5.96397e-05
0.00118187
0.00175556
-5.31656e-17
1.83842e-14
2.00435e-12
5.30278e-10
5.62472e-08
1.94727e-06
2.30455e-05
6.25092e-05
0.00100806
0.00193954
-5.09118e-17
1.71758e-14
1.88359e-12
5.17093e-10
5.54908e-08
1.93659e-06
2.32318e-05
6.44829e-05
0.000800726
0.00210397
-4.30311e-18
2.42598e-15
3.74145e-13
8.75561e-11
9.16727e-09
3.45114e-07
4.56109e-06
1.46362e-05
0.000155133
0.00153593
2.78887e-17
-9.47484e-15
-1.92728e-12
-3.06641e-10
-2.8306e-08
-1.20462e-06
-2.08681e-05
-3.61455e-05
0.00811178
-0.0479211
2.64443e-16
-6.72699e-14
-1.06794e-11
-1.63579e-09
-1.50424e-07
-6.02095e-06
-9.50838e-05
-9.60688e-05
0.0330274
-0.0750436
2.89522e-16
-7.20225e-14
-1.13053e-11
-1.73997e-09
-1.61149e-07
-6.43934e-06
-0.000100693
-8.63379e-05
0.0351827
-0.0866226
2.90736e-16
-7.1801e-14
-1.12888e-11
-1.75407e-09
-1.63647e-07
-6.54458e-06
-0.000102064
-0.000102083
0.0337279
-0.0949927
2.93316e-16
-7.09888e-14
-1.11855e-11
-1.7666e-09
-1.66685e-07
-6.68474e-06
-0.000104397
-0.000135341
0.0315457
-0.101347
2.96795e-16
-6.98136e-14
-1.10189e-11
-1.77906e-09
-1.70378e-07
-6.86449e-06
-0.000107702
-0.000180543
0.029057
-0.106005
3.00678e-16
-6.83825e-14
-1.08015e-11
-1.79035e-09
-1.74462e-07
-7.07039e-06
-0.000111692
-0.000232831
0.026487
-0.108486
3.05038e-16
-6.67058e-14
-1.054e-11
-1.7976e-09
-1.78273e-07
-7.27059e-06
-0.000115854
-0.000289597
0.0238904
-0.107089
2.93496e-16
-6.29749e-14
-1.0059e-11
-1.75673e-09
-1.76184e-07
-7.23955e-06
-0.000117016
-0.000348937
0.0204358
-0.102948
3.28261e-17
-8.97463e-15
-1.9071e-12
-3.49336e-10
-3.52284e-08
-1.53566e-06
-2.6915e-05
-0.000100241
0.00465561
-0.0465036
-1.12025e-16
6.07127e-14
1.03902e-11
1.07971e-09
8.63535e-08
4.42282e-06
0.000125232
0.00246144
0.146876
0.972914
-8.98726e-16
3.84035e-13
5.3492e-11
4.92957e-09
3.79968e-07
1.86501e-05
0.00049791
0.00914509
0.511345
2.54032
-9.88149e-16
4.09417e-13
5.65048e-11
5.1982e-09
4.02724e-07
1.97734e-05
0.000524538
0.00950576
0.533246
2.5895
-1.00072e-15
4.06767e-13
5.61827e-11
5.19876e-09
4.05857e-07
1.99549e-05
0.000525609
0.00922905
0.512298
2.42925
-1.01742e-15
4.02364e-13
5.56091e-11
5.18808e-09
4.09199e-07
2.01748e-05
0.000528138
0.00892809
0.486798
2.24829
-1.03789e-15
3.97478e-13
5.49212e-11
5.17399e-09
4.13233e-07
2.04598e-05
0.000533113
0.00865056
0.460676
2.06788
-1.06022e-15
3.92603e-13
5.41853e-11
5.15868e-09
4.17735e-07
2.0792e-05
0.000540387
0.00842197
0.434882
1.89365
-1.08293e-15
3.88016e-13
5.34732e-11
5.14442e-09
4.22089e-07
2.1121e-05
0.000548536
0.00823789
0.409624
1.74054
-1.04915e-15
3.70971e-13
5.14794e-11
5.02007e-09
4.16074e-07
2.09321e-05
0.000545086
0.00790564
0.372257
1.5341
-1.40035e-16
5.95315e-14
1.03451e-11
1.15531e-09
1.00033e-07
5.25727e-06
0.000143855
0.00213024
0.0985554
0.475743
-2.74094e-15
-7.90084e-13
-6.48284e-11
-3.48163e-09
-1.69187e-07
-8.42519e-06
-0.000269354
0.0149237
1.36234
15.5282
-1.74855e-14
-4.20407e-12
-2.88855e-10
-1.33204e-08
-5.86963e-07
-2.82945e-05
-0.000892348
0.0578201
3.89537
31.2654
-1.87081e-14
-4.46123e-12
-3.03455e-10
-1.39051e-08
-6.11796e-07
-2.96e-05
-0.00093946
0.0598575
4.03135
32.1746
-1.87018e-14
-4.44143e-12
-3.00955e-10
-1.37837e-08
-6.08471e-07
-2.97252e-05
-0.00097392
0.0556685
3.90195
31.5566
-1.86811e-14
-4.40874e-12
-2.97317e-10
-1.36069e-08
-6.02976e-07
-2.98258e-05
-0.00102067
0.0503559
3.75849
30.8609
-1.86848e-14
-4.3752e-12
-2.93403e-10
-1.3412e-08
-5.96615e-07
-2.99247e-05
-0.00107508
0.0446311
3.62485
30.2667
-1.87177e-14
-4.34518e-12
-2.89696e-10
-1.32241e-08
-5.9033e-07
-3.00293e-05
-0.00113356
0.038735
3.5028
29.8102
-1.87813e-14
-4.32254e-12
-2.86783e-10
-1.30792e-08
-5.85607e-07
-3.0171e-05
-0.00119363
0.0328837
3.39302
29.4471
-1.82257e-14
-4.18041e-12
-2.78078e-10
-1.27408e-08
-5.73172e-07
-2.98555e-05
-0.00123619
0.0255428
3.17478
28.2622
-2.96397e-15
-8.14554e-13
-6.45267e-11
-3.44309e-09
-1.71659e-07
-9.3167e-06
-0.000398089
0.00382527
1.00159
13.2414
1.83075e-15
4.46381e-13
3.87416e-11
3.03459e-09
2.75269e-07
2.88557e-05
0.00302229
0.240714
9.75439
112.511
5.80956e-15
9.98975e-13
7.35015e-11
7.03371e-09
7.53217e-07
8.48677e-05
0.00936995
0.755312
24.0341
195.287
5.62814e-15
9.3201e-13
6.88838e-11
6.98057e-09
7.67571e-07
8.74211e-05
0.00969965
0.781145
24.776
199.486
5.02938e-15
7.98473e-13
5.99029e-11
6.51285e-09
7.38298e-07
8.51357e-05
0.00949138
0.76425
24.4058
197.617
4.30358e-15
6.36001e-13
4.89485e-11
5.92768e-09
6.99976e-07
8.20054e-05
0.00922288
0.747117
24.0929
196.153
3.53457e-15
4.66383e-13
3.77691e-11
5.32939e-09
6.59262e-07
7.85671e-05
0.00894045
0.732248
23.888
195.341
2.80462e-15
3.11346e-13
2.8079e-11
4.81419e-09
6.2173e-07
7.51849e-05
0.00866484
0.720214
23.7957
195.221
2.20376e-15
1.93387e-13
2.15645e-11
4.47195e-09
5.92398e-07
7.21877e-05
0.00841609
0.711897
23.8257
195.791
1.85979e-15
1.5016e-13
2.05237e-11
4.32719e-09
5.65095e-07
6.84872e-05
0.00803015
0.68989
23.3594
192.696
1.00236e-15
2.1635e-13
1.95624e-11
1.89132e-09
2.00637e-07
2.30211e-05
0.00257276
0.216317
9.31917
110.159
7.05183e-15
2.1142e-12
2.08251e-10
1.44273e-08
9.91134e-07
7.77808e-05
0.00619965
0.377234
12.5149
139.415
3.84073e-14
9.74e-12
8.13501e-10
4.97229e-08
3.1887e-06
0.000244364
0.0195489
1.15416
29.8908
236.464
4.0108e-14
1.00681e-11
8.31198e-10
5.05671e-08
3.25691e-06
0.000251571
0.0202242
1.19285
30.7706
241.05
3.88799e-14
9.70478e-12
7.96661e-10
4.85161e-08
3.1521e-06
0.000246074
0.0198972
1.1742
30.4722
239.799
3.73428e-14
9.24274e-12
7.5307e-10
4.59285e-08
3.01698e-06
0.00023875
0.0194967
1.15772
30.2968
239.359
3.56373e-14
8.71926e-12
7.03432e-10
4.29762e-08
2.86222e-06
0.000230397
0.0190803
1.14564
30.2791
239.856
3.38181e-14
8.15225e-12
6.49525e-10
3.97673e-08
2.69377e-06
0.000221332
0.0186598
1.13805
30.4137
241.234
3.19633e-14
7.56601e-12
5.93825e-10
3.64528e-08
2.51946e-06
0.000211933
0.0182486
1.13548
30.7077
243.475
2.9278e-14
6.81205e-12
5.27937e-10
3.26016e-08
2.30795e-06
0.000199174
0.0175276
1.11355
30.4708
241.976
5.63493e-15
1.58847e-12
1.4817e-10
1.02707e-08
7.53275e-07
6.48995e-05
0.00560645
0.361624
12.6809
143.059
9.9055e-15
3.28423e-12
3.59175e-10
2.6376e-08
1.7803e-06
0.000128235
0.0089826
0.466923
13.5912
145.254
6.17529e-14
1.77275e-11
1.67578e-09
1.07553e-07
6.5132e-06
0.000437053
0.0294269
1.42646
32.1117
244.544
6.65217e-14
1.9015e-11
1.78737e-09
1.14125e-07
6.88481e-06
0.000460705
0.0308954
1.48595
33.1388
249.306
6.65173e-14
1.90373e-11
1.79053e-09
1.14421e-07
6.90914e-06
0.000462434
0.0309263
1.47885
32.9749
248.468
6.64306e-14
1.90254e-11
1.79024e-09
1.14511e-07
6.92098e-06
0.00046349
0.0309725
1.47809
32.9812
248.59
6.65222e-14
1.90543e-11
1.79323e-09
1.14793e-07
6.94298e-06
0.000465319
0.0311231
1.48673
33.1962
249.752
6.68553e-14
1.91449e-11
1.80163e-09
1.15397e-07
6.98149e-06
0.000468219
0.0313896
1.50496
33.6133
251.858
6.74909e-14
1.93158e-11
1.81737e-09
1.1644e-07
7.0418e-06
0.000472372
0.03178
1.53361
34.2405
254.868
6.63732e-14
1.90592e-11
1.80086e-09
1.15832e-07
7.01635e-06
0.000470904
0.0317786
1.54369
34.3894
254.358
1.06163e-14
3.53735e-12
3.8899e-10
2.88191e-08
1.95792e-06
0.000141546
0.00989721
0.510246
14.6787
152.539
9.19694e-15
3.23477e-12
3.75956e-10
2.91305e-08
2.0351e-06
0.000147003
0.00996355
0.487365
13.7211
147.713
5.63484e-14
1.70347e-11
1.70157e-09
1.14744e-07
7.18682e-06
0.000485547
0.0316815
1.4465