/*--------------------------------*- C++ -*----------------------------------*\
| =========                 |                                                 |
| \\      /  F ield         | OpenFOAM: The Open Source CFD Toolbox           |
|  \\    /   O peration     | Version:  1.7.x                                 |
|   \\  /    A nd           | Web:      www.OpenFOAM.com                      |
|    \\/     M anipulation  |                                                 |
\*---------------------------------------------------------------------------*/
FoamFile
{
    version     2.0;
    format      ascii;
    class       surfaceScalarField;
    location    "0.1";
    object      phi;
}
// * * * * * * * * * * * * * * * * * * * * * * * * * * * * * * * * * * * * * //

dimensions      [0 3 -1 0 0 0 0];

internalField   nonuniform List<scalar> 
22300
(
0.000688977
0.000784555
0.0485265
0.000208757
0.000787397
0.0496928
1.2881e-05
0.000780785
0.0494151
-8.40983e-05
0.000777819
0.0493192
-0.000144285
0.000777428
0.0492828
-0.000190372
0.000777713
0.0492684
-0.000252874
0.00077858
0.0492839
-0.000404501
0.000780202
0.0493714
-0.000804413
0.000783828
0.0496161
0.000781321
0.0484143
0.000675594
0.000353906
0.0497551
0.000187159
0.000352406
0.0509234
1.29043e-07
0.000347457
0.0506204
-9.06069e-05
0.000345647
0.0505229
-0.000146269
0.000344932
0.0504882
-0.000188148
0.000345207
0.0504744
-0.000246018
0.000346264
0.0504902
-0.000394801
0.000348216
0.0505808
-0.000800851
0.000351647
0.0508382
0.000353146
0.0496273
0.000673135
0.00016766
0.0495131
0.000183652
0.000166578
0.0506753
-1.99941e-06
0.000164401
0.0503687
-9.08219e-05
0.000163518
0.050271
-0.00014568
0.000163169
0.0502366
-0.000186875
0.000163402
0.050223
-0.000243724
0.000164132
0.050239
-0.00039146
0.000165354
0.0503306
-0.00079872
0.000167131
0.0505918
0.000168297
0.0493861
0.000672899
7.35929e-05
0.0494212
0.000182622
7.33048e-05
0.0505835
-2.59088e-06
7.24156e-05
0.0502772
-9.08289e-05
7.20151e-05
0.0501797
-0.000145246
7.18504e-05
0.0501457
-0.000186046
7.19785e-05
0.0501322
-0.000242492
7.23618e-05
0.0501482
-0.000390024
7.29665e-05
0.0502399
-0.000798302
7.37186e-05
0.0505017
7.40706e-05
0.0492959
0.000672908
4.38843e-06
0.0493963
0.000182179
4.45787e-06
0.0505596
-2.86749e-06
4.18153e-06
0.0502533
-9.08511e-05
4.09592e-06
0.0501559
-0.00014503
4.04627e-06
0.050122
-0.000185608
4.06029e-06
0.0501085
-0.000241868
4.12935e-06
0.0501245
-0.000389385
4.24441e-06
0.0502162
-0.000798208
4.42305e-06
0.0504781
4.37699e-06
0.0492715
0.000672747
-6.53706e-05
0.049397
0.000181939
-6.49581e-05
0.0505602
-3.02184e-06
-6.45856e-05
0.0502537
-9.09086e-05
-6.43471e-05
0.0501563
-0.000145018
-6.42759e-05
0.0501224
-0.000185531
-6.43755e-05
0.050109
-0.000241733
-6.46338e-05
0.050125
-0.000389217
-6.50237e-05
0.0502168
-0.000798087
-6.54382e-05
0.0504787
-6.58825e-05
0.0492722
0.000672425
-0.000160638
0.0494228
0.000181915
-0.000159461
0.050585
-3.04657e-06
-0.00015771
0.0502781
-9.09957e-05
-0.000156966
0.0501806
-0.000145205
-0.000156693
0.0501466
-0.000185818
-0.0001569
0.0501331
-0.000242087
-0.000157523
0.0501492
-0.00038952
-0.000158568
0.050241
-0.000797953
-0.000160067
0.0505031
-0.0001613
0.0492975
0.000672397
-0.000348699
0.0495157
0.000182559
-0.000347148
0.0506775
-2.70525e-06
-0.000342441
0.05037
-9.10722e-05
-0.00034073
0.0502721
-0.000145611
-0.000340055
0.0502379
-0.000186518
-0.000340306
0.0502243
-0.000243098
-0.00034129
0.0502403
-0.000390678
-0.000343119
0.0503321
-0.000798173
-0.000346369
0.0505938
-0.000347899
0.0493884
0.000674651
-0.000781779
0.0497584
0.000185787
-0.000784598
0.0509263
-7.70187e-07
-0.000777963
0.0506221
-9.09223e-05
-0.000775081
0.0505245
-0.000146179
-0.000774666
0.0504899
-0.000187693
-0.00077493
0.0504761
-0.000245226
-0.000775768
0.050492
-0.000393815
-0.000777342
0.0505828
-0.000800159
-0.000780926
0.0508409
-0.000778423
0.0496304
0.000688256
0.04853
0.000207755
0.0496959
1.23069e-05
0.0494175
-8.43012e-05
0.0493215
-0.000144171
0.0492852
-0.000189971
0.0492709
-0.00025223
0.0492865
-0.00040372
0.0493741
-0.000803845
0.0496192
0.0484177
0.00114138
0.00120891
0.0461762
0.000611823
0.00124508
0.0489773
0.000142823
0.0012593
0.0486248
-0.000188027
0.00126723
0.0483828
-0.000412829
0.00127528
0.0482323
-0.000594719
0.00127852
0.0481717
-0.000797231
0.001278
0.0482084
-0.00107345
0.00127511
0.0483725
-0.0013771
0.00127146
0.0486483
0.00124105
0.0457961
0.00121294
0.000815135
0.0489359
0.000689447
0.000839444
0.0518526
0.000192063
0.000846122
0.0515309
-0.000165053
0.000849295
0.051298
-0.000406171
0.000852979
0.0511516
-0.000603014
0.000855191
0.0510946
-0.000823166
0.000856348
0.051132
-0.00111693
0.000856638
0.051293
-0.00142373
0.000855518
0.051561
0.000834946
0.0486097
0.00121766
0.000477317
0.0486333
0.000695389
0.000489609
0.0515474
0.000196477
0.000492216
0.0512215
-0.000162604
0.000493124
0.0509862
-0.000405341
0.000494292
0.050838
-0.00060362
0.000495489
0.050781
-0.00082487
0.000496764
0.0508198
-0.00111903
0.000497783
0.0509836
-0.00142576
0.000497393
0.0512566
0.00048671
0.0483086
0.00121988
0.000222862
0.0484557
0.000695859
0.000227378
0.0513698
0.0001966
0.000228562
0.0510401
-0.000162272
0.000228821
0.0508029
-0.000404814
0.000229201
0.0506534
-0.000602884
0.000229773
0.050596
-0.000824006
0.00023052
0.0506356
-0.00111855
0.000231148
0.0508011
-0.00142727
0.00023087
0.0510769
0.000226998
0.0481284
0.00122135
1.10072e-05
0.0483868
0.000696097
1.08385e-05
0.0513014
0.000196579
1.12834e-05
0.0509701
-0.000162161
1.14306e-05
0.050732
-0.000404428
1.15845e-05
0.0505819
-0.000602232
1.16963e-05
0.0505244
-0.000823256
1.17696e-05
0.0505643
-0.0011182
1.17892e-05
0.0507305
-0.0014284
1.16673e-05
0.0510075
1.19714e-05
0.0480581
0.00122163
-0.000201724
0.0483881
0.000696602
-0.000206551
0.0513027
0.000196916
-0.000206897
0.0509716
-0.000161991
-0.000206866
0.0507335
-0.000404314
-0.00020695
0.0505833
-0.000602176
-0.0002073
0.0505258
-0.000823311
-0.000207903
0.0505658
-0.00111836
-0.000208497
0.0507321
-0.00142847
-0.000208447
0.051009
-0.000204005
0.0480597
0.0012207
-0.000459127
0.0484596
0.000697344
-0.000471671
0.0513735
0.000197594
-0.000473569
0.0510445
-0.000161774
-0.000474222
0.0508073
-0.000404487
-0.000475132
0.0506575
-0.000602733
-0.000476135
0.0506002
-0.000824188
-0.000477277
0.05064
-0.00111903
-0.000478262
0.0508056
-0.00142749
-0.00047806
0.0510811
-0.000466897
0.0481329
0.00121894
-0.000801324
0.0486389
0.000697693
-0.000825818
0.0515529
0.000198027
-0.000832086
0.0512282
-0.000161826
-0.000835084
0.0509929
-0.000404822
-0.000838597
0.0508444
-0.000603371
-0.000840662
0.0507874
-0.000825144
-0.000841694
0.0508265
-0.00111978
-0.000841926
0.0509904
-0.00142609
-0.000840883
0.0512629
-0.000819965
0.0483154
0.00121458
-0.00120083
0.0489434
0.000692333
-0.0012372
0.05186
0.000194026
-0.00125142
0.0515397
-0.000164039
-0.00125928
0.0513068
-0.000405484
-0.00126729
0.05116
-0.000602665
-0.00127045
0.0511031
-0.000823468
-0.00126982
0.0511409
-0.00111783
-0.00126684
0.0513021
-0.00142412
-0.0012631
0.0515694
-0.00123247
0.0486187
0.00114246
0.0461867
0.000613769
0.0489874
0.000144195
0.0486356
-0.000187165
0.0483936
-0.000412062
0.0482428
-0.000594049
0.0481824
-0.000796925
0.0482195
-0.00107357
0.048384
-0.00137694
0.0486595
0.0458083
0.000709535
0.00119104
0.0442756
0.000188049
0.00122703
0.0482718
-0.000256281
0.00121075
0.0478584
-0.000586573
0.00121311
0.0475
-0.000810136
0.0012145
0.0472414
-0.000967277
0.00121819
0.0471107
-0.00110686
0.00122245
0.0471256
-0.00125734
0.00122948
0.0472935
-0.00132162
0.00124648
0.0474661
0.00120294
0.0432716
0.000701085
0.000959197
0.0484666
0.000160202
0.00100067
0.0526198
-0.000271553
0.000993305
0.0521801
-0.000587307
0.000993585
0.0518332
-0.000808365
0.000994223
0.0515929
-0.000964243
0.000997164
0.0514715
-0.00110407
0.00100142
0.0514929
-0.00125879
0.00100743
0.0516698
-0.00133357
0.00101689
0.0518653
0.000971912
0.0475072
0.000684115
0.000625034
0.0482833
0.000146954
0.000653173
0.0524321
-0.000278884
0.000650203
0.0519905
-0.000590782
0.000649781
0.0516419
-0.000809649
0.000650212
0.0514009
-0.000963253
0.000652101
0.0512797
-0.0010998
0.000655106
0.0513027
-0.00124952
0.000658917
0.0514818
-0.00131958
0.000662944
0.0516806
0.000634088
0.0473268
0.000680448
0.000314937
0.0480854
0.00014303
0.000327843
0.0522326
-0.000281908
0.000326621
0.0517886
-0.000592947
0.000326305
0.0514374
-0.000810548
0.000326459
0.0511947
-0.000962797
0.000327449
0.0510729
-0.00109792
0.000329133
0.0510967
-0.00124649
0.000331123
0.0512775
-0.0013172
0.000332799
0.0514778
0.000319822
0.0471254
0.000679937
2.32225e-05
0.0479986
0.000141229
2.3103e-05
0.0521448
-0.00028358
2.26545e-05
0.0516989
-0.000593975
2.26351e-05
0.0513461
-0.000810693
2.26462e-05
0.0511024
-0.000962034
2.29027e-05
0.0509803
-0.00109642
2.3348e-05
0.0510044
-0.00124488
2.38628e-05
0.0511863
-0.00131709
2.45802e-05
0.0513879
2.47634e-05
0.0470361
0.000679321
-0.000270716
0.0480027
0.000140373
-0.000283815
0.0521485
-0.0002841
-0.00028343
0.0517022
-0.000594042
-0.00028314
0.0513493
-0.000810447
-0.000283267
0.0511056
-0.000961466
-0.000283769
0.0509835
-0.00109554
-0.000284617
0.0510078
-0.00124384
-0.000285634
0.0511899
-0.00131634
-0.000285976
0.051392
-0.000272674
0.0470408
0.000678654
-0.000586908
0.0480971
0.000140561
-0.000615182
0.052243
-0.000283408
-0.000612916
0.051798
-0.00059315
-0.000612496
0.0514464
-0.000809829
-0.000612894
0.0512038
-0.000961139
-0.00061436
0.0510821
-0.00109537
-0.000616657
0.0511063
-0.00124348
-0.000619644
0.0512877
-0.00131501
-0.000622563
0.0514892
-0.000593475
0.0471387
0.000681348
-0.000930716
0.0483014
0.000143119
-0.000972212
0.0524482
-0.000281184
-0.000965269
0.0520048
-0.000591079
-0.000965589
0.0516558
-0.000808535
-0.000966159
0.0514151
-0.000960697
-0.000968776
0.051294
-0.00109585
-0.000972517
0.0513175
-0.00124488
-0.000977913
0.0514977
-0.00131621
-0.000986605
0.0516983
-0.000941505
0.0473472
0.000697501
-0.00117596
0.0484911
0.000155339
-0.00121177
0.0526417
-0.000274415
-0.00119558
0.0521998
-0.000587649
-0.00119805
0.0518525
-0.000806931
-0.00119932
0.0516125
-0.000961003
-0.00120283
0.0514912
-0.0010991
-0.00120685
0.0515134
-0.00125291
-0.00121355
0.0516915
-0.00132925
-0.00123022
0.0518894
-0.00118665
0.0475346
0.000706382
0.0443043
0.000184189
0.0482978
-0.000258412
0.0478827
-0.000586661
0.0475238
-0.000808585
0.0472654
-0.000964132
0.0471351
-0.00110238
0.0471509
-0.00125226
0.0473203
-0.00131786
0.0474948
0.0433038
0.00072742
0.0010072
0.042541
0.000178751
0.00111204
0.0477084
-0.000540717
0.00111635
0.0474615
-0.00101783
0.00111399
0.0468631
-0.00127479
0.00112448
0.0463738
-0.00141416
0.00113098
0.0461191
-0.00150451
0.00113632
0.0460796
-0.00156969
0.00114274
0.046216
-0.00144941
0.00115035
0.0461954
0.00105756
0.0407646
0.000870211
0.000869801
0.0477338
0.000351797
0.000957118
0.0532931
-0.000425686
0.000953929
0.05312
-0.000980014
0.000950512
0.0525511
-0.00128588
0.000954662
0.0520686
-0.00147624
0.000958929
0.0518339
-0.00162421
0.00096449
0.0518126
-0.00173902
0.000972156
0.0519552
-0.00160456
0.00097862
0.0519026
0.000898659
0.0460615
0.000861211
0.000611289
0.0476806
0.000353605
0.000663996
0.0532328
-0.00042508
0.00066124
0.0530618
-0.000981484
0.000658869
0.05249
-0.00128748
0.000659532
0.052002
-0.00147827
0.000661798
0.0517676
-0.00162659
0.000665836
0.0517497
-0.00173941
0.000671415
0.0518954
-0.00159744
0.000675115
0.0518422
0.000624537
0.0460035
0.000855602
0.000328567
0.0475125
0.000347788
0.00035304
0.0530513
-0.000431492
0.000351502
0.0528777
-0.000985788
0.000350193
0.0523004
-0.00128941
0.000350162
0.0518077
-0.00147766
0.000351239
0.0515717
-0.00162355
0.000353429
0.051555
-0.00173457
0.000356386
0.0517035
-0.00159216
0.000357916
0.0516526
0.000334208
0.0458236
0.000853684
3.62478e-05
0.0474372
0.00034552
3.63524e-05
0.0529697
-0.000434472
3.65495e-05
0.0527938
-0.000987933
3.65608e-05
0.0522132
-0.00129015
3.68887e-05
0.0517179
-0.00147692
3.7256e-05
0.051481
-0.00162166
3.76968e-05
0.0514649
-0.00173231
3.81524e-05
0.0516151
-0.00159041
3.81385e-05
0.0515658
3.86343e-05
0.0457413
0.000853891
-0.000259651
0.0474447
0.000346347
-0.000283842
0.0529763
-0.000433869
-0.000281926
0.0528009
-0.000987652
-0.00028056
0.0522202
-0.0012898
-0.000279895
0.0517245
-0.00147654
-0.000280258
0.0514877
-0.00162153
-0.000281593
0.0514721
-0.00173254
-0.000283671
0.0516227
-0.00159057
-0.000285232
0.0515734
-0.000260616
0.0457495
0.000856272
-0.000552448
0.0475336
0.000350332
-0.000604767
0.0530698
-0.000429703
-0.00060164
0.0528977
-0.000984954
-0.000599122
0.0523202
-0.00128841
-0.000599181
0.0518266
-0.00147659
-0.000600816
0.0515909
-0.00162322
-0.00060413
0.0515754
-0.00173535
-0.000609008
0.0517252
-0.00159264
-0.000612812
0.0516741
-0.000561512
0.0458469
0.000862352
-0.000826283
0.0477129
0.000357957
-0.000913355
0.0532612
-0.000422169
-0.000909725
0.0530931
-0.000980141
-0.000906065
0.0525208
-0.00128588
-0.000909774
0.0520314
-0.00147659
-0.000913568
0.0517974
-0.0016261
-0.0009186
0.0517815
-0.00174065
-0.000925846
0.0519291
-0.00159822
-0.000932444
0.0518755
-0.000852019
0.0460395
0.000871982
-0.000983296
0.0477761
0.00035753
-0.00108844
0.0533312
-0.000421807
-0.00109252
0.0531619
-0.000978173
-0.0010898
0.0525926
-0.00128379
-0.0011001
0.0521084
-0.00147415
-0.00110632
0.0518743
-0.0016237
-0.00111133
0.0518556
-0.00174077
-0.00111752
0.0520003
-0.00160581
-0.00112504
0.051947
-0.00103187
0.0461087
0.00072948
0.0425916
0.000183439
0.0477554
-0.000537713
0.0475113
-0.00101598
0.0469123
-0.0012723
0.0464216
-0.00141112
0.0461676
-0.00150226
0.0461307
-0.00156942
0.0462699
-0.00144952
0.0462499
0.0408224
-0.000267365
0.000914999
0.0418934
-0.00123181
0.000994953
0.0476779
-0.00170157
0.00100172
0.0469295
-0.00184717
0.00101163
0.0459971
-0.00183185
0.0010036
0.0453549
-0.00166875
0.00100876
0.0449472
-0.00141943
0.00101962
0.0448106
-0.00117834
0.00103079
0.0449441
-0.000993772
0.00104432
0.0449666
0.000926075
0.0388447
-0.000156543
0.000799887
0.0480055
-0.00123104
0.000882456
0.0544801
-0.00173465
0.000879844
0.0537455
-0.00186108
0.000877611
0.0528115
-0.00186148
0.000871871
0.0522007
-0.00170158
0.000875324
0.0518074
-0.00144116
0.000884566
0.0516873
-0.00119948
0.000896773
0.0518475
-0.00104336
0.000910196
0.0518806
0.000807507
0.0451367
-0.000172545
0.000574841
0.0480782
-0.00125266
0.000634991
0.0545604
-0.00175232
0.000626849
0.0538145
-0.00187013
0.000620334
0.052865
-0.00186342
0.00061596
0.0522513
-0.00169648
0.000617411
0.0518585
-0.00142822
0.000623672
0.0517423
-0.00117982
0.000633133
0.0519106
-0.00102309
0.000642787
0.0519529
0.000575078
0.0452128
-0.000186653
0.000319478
0.0479545
-0.00126856
0.000350588
0.0544176
-0.00176527
0.000346465
0.0536548
-0.00187845
0.000342497
0.0526914
-0.00186606
0.000340111
0.0520712
-0.0016937
0.000340875
0.0516759
-0.00142011
0.000344429
0.0515606
-0.00116792
0.000349686
0.0517348
-0.00101272
0.000355054
0.0517851
0.000321374
0.0450646
-0.00019378
5.1804e-05
0.0478987
-0.00127817
5.30346e-05
0.0543516
-0.001773
5.40541e-05
0.053581
-0.00188299
5.42859e-05
0.0526114
-0.00186722
5.43739e-05
0.0519878
-0.00169147
5.51202e-05
0.051591
-0.00141458
5.63748e-05
0.0514761
-0.00116063
5.76425e-05
0.0516532
-0.00100701
5.93802e-05
0.0517079
5.82301e-05
0.0449974
-0.000194061
-0.000220728
0.0479113
-0.00127976
-0.000249456
0.0543644
-0.00177415
-0.000243487
0.0535928
-0.00188301
-0.000239069
0.0526224
-0.00186649
-0.000236478
0.0519989
-0.00168987
-0.000235796
0.051602
-0.0014119
-0.000236975
0.0514875
-0.00115772
-0.000239765
0.0516659
-0.00100513
-0.000241729
0.0517219
-0.00021016
0.0450127
-0.000187467
-0.000490227
0.0479906
-0.00127307
-0.000548265
0.0544542
-0.00176854
-0.000538759
0.0536885
-0.00187849
-0.000531863
0.0527229
-0.00186393
-0.000527369
0.0521029
-0.00168905
-0.000527561
0.0517077
-0.00141234
-0.000531715
0.0515935
-0.00115943
-0.000539031
0.0517715
-0.00100716
-0.000545817
0.0518259
-0.000480066
0.0451097
-0.000173674
-0.000737712
0.048134
-0.00125968
-0.000818506
0.0546174
-0.0017574
-0.000815061
0.0538671
-0.00187011
-0.000812578
0.0529142
-0.00186007
-0.000806631
0.0523006
-0.00168926
-0.000809158
0.0519082
-0.00141621
-0.000816938
0.0517937
-0.00116682
-0.000827577
0.0519683
-0.00101468
-0.000839105
0.0520166
-0.000738105
0.0452829
-0.000157746
-0.000881807
0.048078
-0.00123962
-0.00095981
0.0545544
-0.00174086
-0.000966965
0.0538151
-0.00186095
-0.000977213
0.0528773
-0.0018572
-0.000968943
0.052267
-0.00169244
-0.000973682
0.0518741
-0.00142602
-0.000983897
0.0517562
-0.00118304
-0.000994036
0.0519238
-0.00103267
-0.00100626
0.0519638
-0.000889427
0.0452273
-0.000270546
0.0419803
-0.0012403
0.0477654
-0.00170721
0.0470113
-0.00184707
0.0460749
-0.0018275
0.0454331
-0.0016597
0.0450261
-0.00140508
0.0448922
-0.00116261
0.0450334
-0.000983703
0.0450647
0.0389493
-0.000468612
0.000661279
0.0417007
-0.00143118
0.000845848
0.0477946
-0.00218854
0.000785622
0.0469013
-0.00250875
0.000733728
0.0455835
-0.002443
0.000723552
0.0445656
-0.00222349
0.000722316
0.0440054
-0.00193195
0.00073347
0.0437856
-0.00164328
0.000759431
0.043896
-0.00122068
0.000776228
0.0437677
0.000616535
0.0370075
-0.000488718
0.000671841
0.0484836
-0.00128935
0.000791744
0.0553349
-0.00208616
0.000747813
0.0545801
-0.00253891
0.00071139
0.0532866
-0.00254319
0.000697632
0.0522309
-0.00240309
0.000695079
0.0516945
-0.00220138
0.000704875
0.0515142
-0.00197416
0.0007285
0.0516512
-0.00151874
0.000747285
0.0514541
0.000629686
0.0436048
-0.000519231
0.000516864
0.0487524
-0.00131224
0.000580118
0.055565
-0.00210384
0.000558834
0.0547951
-0.00255123
0.000538132
0.0534857
-0.00254906
0.000527357
0.0524194
-0.00240632
0.000525012
0.0518859
-0.00220177
0.000531362
0.0517113
-0.00197135
0.000545889
0.0518628
-0.00151866
0.000557294
0.0516902
0.000487728
0.0438361
-0.000537818
0.000307684
0.0487015
-0.00133919
0.000337073
0.055462
-0.00212625
0.00032632
0.0546743
-0.00256449
0.000316759
0.053351
-0.00255361
0.000311148
0.0522765
-0.00240317
0.000309979
0.0517405
-0.00219099
0.00031357
0.0515662
-0.00195487
0.000321462
0.0517231
-0.00150827
0.000327462
0.0515683
0.000294409
0.0437496
-0.000548492
7.69836e-05
0.0486779
-0.00135184
7.71204e-05
0.0554149
-0.0021373
7.33143e-05
0.0546195
-0.00257168
7.25269e-05
0.05329
-0.00255586
7.26667e-05
0.0522105
-0.00240103
7.32028e-05
0.051673
-0.00218516
7.45819e-05
0.0514992
-0.00194616
7.71907e-05
0.0516585
-0.00150218
7.92358e-05
0.0515121
8.02246e-05
0.0437094
-0.000550569
-0.000159585
0.0486985
-0.00135163
-0.000189503
0.0554321
-0.00213688
-0.000186373
0.0546377
-0.00257157
-0.000178571
0.0533082
-0.00255524
-0.000172686
0.0522279
-0.00240019
-0.000170472
0.0516907
-0.00218438
-0.000171378
0.0515176
-0.00194517
-0.00017405
0.051678
-0.00150196
-0.000175491
0.0515334
-0.000140011
0.043731
-0.000543977
-0.000390992
0.048766
-0.00133879
-0.000454412
0.055514
-0.00212509
-0.000439346
0.0547277
-0.00256412
-0.000420284
0.0534037
-0.00255184
-0.000409154
0.0523271
-0.00240075
-0.000405875
0.0517921
-0.00218877
-0.000409941
0.05162
-0.00195192
-0.000419998
0.0517806
-0.00150746
-0.000427549
0.0516335
-0.000355845
0.043818
-0.000528448
-0.00058146
0.0488529
-0.00131135
-0.000701029
0.0556469
-0.00210192
-0.000660754
0.054879
-0.00255043
-0.000625121
0.0535675
-0.00254619
-0.000611126
0.0524984
-0.00240255
-0.000607848
0.0519665
-0.0021982
-0.000616056
0.0517955
-0.00196653
-0.000637078
0.0519537
-0.00151721
-0.000654032
0.0517938
-0.000535479
0.0439453
-0.000500321
-0.000617109
0.048614
-0.00128771
-0.000801613
0.0554424
-0.00208301
-0.000741534
0.0546912
-0.00253768
-0.000688915
0.0533958
-0.00253945
-0.000678505
0.0523361
-0.00239861
-0.000676857
0.0518023
-0.00219781
-0.000687454
0.0516268
-0.00196994
-0.000713217
0.051772
-0.0015187
-0.000729987
0.0515885
-0.00057003
0.0437432
-0.000476196
0.0418394
-0.00142941
0.047917
-0.00218665
0.047027
-0.0025075
0.0457069
-0.00243873
0.0446859
-0.00221754
0.0441281
-0.00192574
0.043913
-0.0016374
0.0440319
-0.00122127
0.0439186
0.037158
-0.00149844
0.000462392
0.0427367
-0.00363792
0.000491867
0.0494422
-0.00401842
0.000488053
0.0467937
-0.00350642
0.000461987
0.0446096
-0.00302803
0.00043729
0.0436499
-0.00228221
0.000444116
0.0428154
-0.00128107
0.00045757
0.0423269
-0.000386605
0.000470353
0.0425311
-2.99331e-05
0.000496137
0.0429149
0.000418654
0.0365589
-0.00105687
0.000575113
0.0494278
-0.00356255
0.000627325
0.0577051
-0.00411145
0.000571062
0.055046
-0.00353858
0.000520259
0.0526554
-0.00309251
0.000493847
0.0517283
-0.00234761
0.000492168
0.0509016
-0.00129761
0.000504449
0.0504173
-0.000407415
0.000528184
0.0507032
-8.34512e-05
0.000567871
0.0510584
0.00048536
0.0434547
-0.00105752
0.000468718
0.0499163
-0.00361305
0.000520192
0.0582277
-0.00415421
0.000478046
0.0554293
-0.00354872
0.000440912
0.0529595
-0.00309362
0.00041932
0.0520388
-0.00233976
0.000415121
0.0512091
-0.00127247
0.000423699
0.0507247
-0.000371025
0.000442242
0.0510473
-5.18239e-05
0.000467603
0.0514712
0.000404387
0.0438653
-0.00108586
0.000288101
0.049968
-0.00366178
0.000321509
0.0582366
-0.00419327
0.000305819
0.0553781
-0.00356765
0.000286432
0.0528799
-0.003099
0.000275189
0.051952
-0.00233338
0.000273189
0.0511168
-0.00125396
0.000278398
0.0506321
-0.000344492
0.000288699
0.0509671
-3.05442e-05
0.000300844
0.0514212
0.000263857
0.0438596
-0.00109904
8.52591e-05
0.0499797
-0.00368598
9.12777e-05
0.0582321
-0.00421427
9.64673e-05
0.0553572
-0.00357858
9.51912e-05
0.0528456
-0.00310174
9.50041e-05
0.0519138
-0.00232896
9.66073e-05
0.0510768
-0.00124276
9.91287e-05
0.0505923
-0.000330243
0.000101692
0.050933
-1.98251e-05
0.000104481
0.0513981
9.89939e-05
0.0438544
-0.00109702
-0.000122353
0.0500031
-0.00368857
-0.000144682
0.0582597
-0.00421725
-0.000121254
0.0553841
-0.00357855
-0.0001046
0.0528692
-0.00310026
-9.3989e-05
0.0519386
-0.00232627
-8.89854e-05
0.0511023
-0.00123818
-8.92973e-05
0.0506179
-0.000325895
-9.43363e-05
0.0509617
-1.81717e-05
-0.000100606
0.0514308
-7.44427e-05
0.0438863
-0.00108066
-0.000323151
0.0500474
-0.0036696
-0.000367382
0.0583256
-0.00420147
-0.000320569
0.0554589
-0.00356726
-0.000285834
0.0529507
-0.00309459
-0.000264994
0.0520254
-0.00232547
-0.000258226
0.0511922
-0.00124026
-0.000262594
0.0507081
-0.000330674
-0.00027629
0.051053
-2.45239e-05
-0.00029458
0.0515214
-0.000237714
0.0439568
-0.00104977
-0.000470539
0.0500501
-0.00362635
-0.000516865
0.058373
-0.00416745
-0.000456726
0.0555563
-0.00354777
-0.000408039
0.0530701
-0.00308672
-0.000381657
0.052154
-0.00232755
-0.000377983
0.0513271
-0.00125117
-0.000387301
0.0508438
-0.000349285
-0.000406704
0.0511822
-4.2573e-05
-0.000441083
0.0516336
-0.000364177
0.0440292
-0.00104328
-0.000410209
0.0495969
-0.00357693
-0.000435194
0.0578943
-0.00412717
-0.000429249
0.0552139
-0.00353636
-0.000403322
0.0528002
-0.00308356
-0.000378721
0.0518804
-0.00233241
-0.00038508
0.0510582
-0.00127082
-0.000396959
0.0505748
-0.000380181
-0.000408434
0.0508831
-7.12639e-05
-0.000432635
0.0512711
-0.00035843
0.0436662
-0.00148769
0.0429169
-0.00365218
0.0496463
-0.00403302
0.0469786
-0.003505
0.0447755
-0.00301897
0.0438211
-0.00226589
0.0429899
-0.00125367
0.0425038
-0.000355948
0.0427257
-1.07966e-05
0.0431408
0.0367888
-0.00444364
0.000593191
0.0465872
-0.00544817
0.000618213
0.0498285
-0.00458249
0.000408886
0.0455192
-0.00457853
0.000278581
0.044327
-0.00410995
0.000262303
0.0429191
-0.00333144
0.000249625
0.0417873
-0.00240596
0.000250614
0.0411508
-0.0011569
0.000342805
0.0409393
-0.000455819
0.000482475
0.0417313
0.00053406
0.0355691
-0.00460909
0.0006129
0.0540172
-0.00537608
0.000556793
0.0585335
-0.00442279
0.000454439
0.0540472
-0.00462485
0.000385911
0.0527502
-0.00430194
0.000348608
0.051319
-0.00361401
0.000333588
0.0501297
-0.00277833
0.000338021
0.0494942
-0.00143353
0.000383708
0.0493175
-0.000590101
0.00046475
0.0502327
0.00050747
0.0428912
-0.00473562
0.000466694
0.0547982
-0.00550444
0.000444036
0.0591093
-0.00446316
0.000406775
0.0544357
-0.00464159
0.000361482
0.0531624
-0.00431724
0.000333325
0.0517297
-0.00361766
0.000323077
0.05052
-0.00275704
0.000327854
0.0498743
-0.0013644
0.000351991
0.0496864
-0.000526265
0.000390452
0.0507074
0.00039147
0.043455
-0.0048084
0.000307125
0.054936
-0.00558456
0.000302615
0.0591542
-0.00450705
0.000281205
0.0544261
-0.0046682
0.000261022
0.0531415
-0.00432927
0.000247199
0.0516992
-0.00361399
0.000242108
0.0504825
-0.0027361
0.000244971
0.0498371
-0.00132008
0.000257714
0.0496454
-0.000487998
0.000279609
0.0506999
0.000276928
0.0434862
-0.00483837
0.000129216
0.054996
-0.00561558
0.000126629
0.0591853
-0.00452903
0.000119615
0.0544322
-0.00468212
0.000120694
0.053139
-0.00433464
0.000121283
0.0516923
-0.00361113
0.000121933
0.0504734
-0.00272606
0.000123643
0.0498285
-0.00129961
0.000128826
0.0496354
-0.000469433
0.000139873
0.0507076
0.000150075
0.0435119
-0.00483961
-6.22536e-05
0.0550342
-0.0056152
-6.36689e-05
0.0592255
-0.00452738
-5.20112e-05
0.0544679
-0.00468078
-3.06751e-05
0.053174
-0.00433336
-1.64592e-05
0.0517289
-0.00360962
-1.02043e-05
0.0505107
-0.00272532
-9.24617e-06
0.0498665
-0.00129417
-1.24351e-05
0.0496718
-0.000462673
-1.6345e-05
0.0507555
6.26049e-06
0.0435674
-0.0048158
-0.000251287
0.0550523
-0.00558829
-0.000236505
0.0592709
-0.00450332
-0.000209391
0.0545313
-0.00466436
-0.000163432
0.0532445
-0.00432551
-0.000135317
0.0518054
-0.00360923
-0.000124688
0.0505904
-0.00273172
-0.000126109
0.0499475
-0.00130035
-0.000141037
0.0497502
-0.000467254
-0.000161608
0.0508335
-0.00014561
0.0436414
-0.00474864
-0.000448625
0.0549961
-0.00551152
-0.000399854
0.0592992
-0.00445673
-0.00031014
0.0546023
-0.00463557
-0.00024316
0.0533286
-0.00431122
-0.000204703
0.051899
-0.00360982
-0.00018919
0.0506902
-0.00274966
-0.000191444
0.050049
-0.00133119
-0.000229923
0.0498526
-0.000489575
-0.000294321
0.0509247
-0.000318376
0.0437124
-0.00463004
-0.000509935
0.0542883
-0.00538705
-0.000536241
0.0587877
-0.00441406
-0.000333905
0.0542647
-0.00461636
-0.000206716
0.0529661
-0.00429455
-0.000189941
0.0515438
-0.00360508
-0.000176199
0.0503558
-0.00277066
-0.000176042
0.049725
-0.00139318
-0.00026471
0.0495404
-0.000546376
-0.000400304
0.0505303
-0.000448221
0.0432496
-0.00446977
0.0468767
-0.00546104
0.0501013
-0.00457634
0.04576
-0.00457244
0.0445649
-0.00410191
0.0431606
-0.00332036
0.0420322
-0.00239416
0.0414015
-0.00111918
0.041186
-0.000420449
0.0420418
0.0359201
-0.00576518
0.0013862
0.0509662
-0.00941474
0.00105941
0.0524187
-0.00768484
0.000405525
0.0433838
-0.00613252
0.000196599
0.0425781
-0.00487869
0.000226159
0.0414391
-0.00319131
0.00020528
0.0398946
-0.000878034
0.000200895
0.0386367
0.00131755
0.000282546
0.0384612
0.00174057
0.000625669
0.0406827
0.000763428
0.0365462
-0.00592715
0.00103032
0.0603002
-0.00995274
0.000893297
0.0627252
-0.0079565
0.000546522
0.05191
-0.0063426
0.000334449
0.0509984
-0.00504018
0.000296425
0.0499464
-0.00325221
0.000278333
0.0482687
-0.000765799
0.000301447
0.0469072
0.00146975
0.000392978
0.0469715
0.00172388
0.000580737
0.0500235
0.000594995
0.0447835
-0.00618034
0.000636788
0.061372
-0.0102851
0.000620599
0.0634867
-0.00808595
0.000459011
0.052324
-0.00638351
0.000340579
0.0514538
-0.00506016
0.000300412
0.0504024
-0.00323759
0.000287738
0.048688
-0.00068096
0.000302703
0.0473164
0.00163214
0.000353492
0.0474128
0.00185288
0.000436013
0.0506314
0.00041278
0.0454901
-0.00629835
0.000383182
0.0614879
-0.0104424
0.000391472
0.0635274
-0.00817707
0.000326951
0.0522928
-0.00642544
0.000269986
0.0514605
-0.00507461
0.000248708
0.0504
-0.0032242
0.000243674
0.0486761
-0.000629466
0.000252949
0.0472921
0.001718
0.000278364
0.0473731
0.00191249
0.000317144
0.0506243
0.000298189
0.0455132
-0.00634146
0.00016103
0.0615596
-0.0105067
0.000170912
0.0635711
-0.0082205
0.000169201
0.0523037
-0.00644644
0.000159955
0.0514749
-0.00508075
0.000160605
0.0504147
-0.00321604
0.000164746
0.0486877
-0.000602376
0.000170547
0.0472973
0.00175769
0.000179122
0.0473746
0.00193423
0.000193557
0.0506547
0.000190027
0.0455542
-0.00634699
-7.7772e-05
0.06162
-0.0105182
-6.60832e-05
0.0636337
-0.00822599
-3.01973e-06
0.0523479
-0.00644662
3.54741e-05
0.0515191
-0.00507823
5.73666e-05
0.0504638
-0.00321046
7.0327e-05
0.0487373
-0.000589787
7.23287e-05
0.0473441
0.00177385
6.36124e-05
0.0474237
0.00193859
4.97617e-05
0.0507346
5.71091e-05
0.0456389
-0.00632388
-0.000375973
0.0616743
-0.0104817
-0.000342489
0.0637052
-0.00819597
-0.00017885
0.0524214
-0.00642724
-7.73342e-05
0.0515886
-0.00506749
-3.88068e-05
0.0505419
-0.00320745
-1.94519e-05
0.0488201
-0.000592
-2.29949e-05
0.0474274
0.00176628
-5.78018e-05
0.0475133
0.00192797
-0.000128988
0.0508506
-0.000120328
0.0457468
-0.00622826
-0.000824656
0.061673
-0.0103534
-0.000685394
0.0637672
-0.00811685
-0.000340697
0.0525276
-0.00638785
-0.000139826
0.0516621
-0.00504979
-0.000103919
0.0506261
-0.00321087
-8.39559e-05
0.0489158
-0.000619227
-9.76375e-05
0.047532
0.00171435
-0.000177701
0.047639
0.00188637
-0.000351558
0.0509752
-0.000383138
0.0458616
-0.0059815
-0.00128902
0.0607341
-0.0100415
-0.00096253
0.0631249
-0.00799523
-0.000314195
0.0521919
-0.00634384
-0.00010577
0.0512806
-0.00502829
-0.00012931
0.0502536
-0.00321816
-0.000110594
0.0485723
-0.000688459
-0.000107539
0.0472052
0.00157507
-0.000187967
0.0472872
0.00176265
-0.000529112
0.0505203
-0.000674954
0.0453041
-0.00582002
0.0514077
-0.00949996
0.0528187
-0.00772285
0.0436686
-0.0061379
0.0428742
-0.00486387
0.0417573
-0.00315875
0.0402165
-0.000806299
0.0389416
0.00141436
0.0387774
0.00179207
0.041135
0.0370372
-0.0132725
0.00208251
0.0621561
-0.0105539
0.000901375
0.0487987
-0.00748583
-9.82576e-05
0.0404139
-0.00752689
0.000177046
0.0424421
-0.00651313
0.000191859
0.0402334
-0.00546404
9.82478e-05
0.0387473
-0.0038115
1.24876e-05
0.0369717
-0.000312716
-9.4864e-05
0.0350572
0.00256139
0.000331803
0.0374767
0.00123158
0.037876
-0.0137865
0.00108664
0.0750826
-0.0111087
0.000554218
0.0603945
-0.00748613
0.00019302
0.0479962
-0.00772513
0.000307116
0.0511074
-0.00681113
0.000266588
0.0489576
-0.00585265