/*--------------------------------*- C++ -*----------------------------------*\
| =========                 |                                                 |
| \\      /  F ield         | OpenFOAM: The Open Source CFD Toolbox           |
|  \\    /   O peration     | Version:  1.7.x                                 |
|   \\  /    A nd           | Web:      www.OpenFOAM.com                      |
|    \\/     M anipulation  |                                                 |
\*---------------------------------------------------------------------------*/
FoamFile
{
    version     2.0;
    format      ascii;
    class       volVectorField;
    location    "0.1";
    object      U;
}
// * * * * * * * * * * * * * * * * * * * * * * * * * * * * * * * * * * * * * //

dimensions      [0 1 -1 0 0 0 0];

internalField   nonuniform List<vector> 
8000
(
(4.82809 0.0397953 0.044126)
(4.92887 0.0479782 0.0442705)
(4.93628 0.00877422 0.0438336)
(4.93921 -0.00387585 0.0436378)
(4.94061 -0.0110822 0.043578)
(4.94087 -0.0163992 0.0435796)
(4.94025 -0.0221973 0.0436283)
(4.93876 -0.0325746 0.0437227)
(4.93614 -0.0642514 0.0439238)
(4.83603 -0.0446619 0.0437816)
(4.92052 0.0392992 0.0611576)
(5.02459 0.0457285 0.0611844)
(5.03676 0.00638761 0.060496)
(5.04131 -0.00487996 0.0602125)
(5.04343 -0.0114876 0.060123)
(5.04389 -0.0163565 0.0601433)
(5.04303 -0.0217502 0.0602504)
(5.04072 -0.0315986 0.0604539)
(5.03634 -0.0634177 0.0608508)
(4.93354 -0.044535 0.0608224)
(4.92056 0.0392108 0.0254698)
(5.02517 0.0453654 0.0253044)
(5.03771 0.00604479 0.024982)
(5.04238 -0.00497526 0.024865)
(5.04458 -0.0114697 0.0248323)
(5.04505 -0.0162577 0.0248663)
(5.04416 -0.0215649 0.0249577)
(5.04178 -0.0312808 0.0251184)
(5.03726 -0.0631241 0.025386)
(4.93399 -0.0444523 0.0255671)
(4.92089 0.03921 0.0120643)
(5.02568 0.0452846 0.0120039)
(5.03825 0.0059454 0.0118584)
(5.04294 -0.00500223 0.0117992)
(5.04515 -0.0114491 0.0117787)
(5.04562 -0.0161945 0.011799)
(5.04472 -0.0214614 0.0118549)
(5.04232 -0.0311343 0.0119461)
(5.03777 -0.0630274 0.0120741)
(4.93434 -0.044442 0.0121437)
(4.92104 0.0392144 0.00390875)
(5.02588 0.045254 0.00389876)
(5.03847 0.00590073 0.00384246)
(5.04317 -0.00501561 0.00381987)
(5.04538 -0.0114396 0.00381078)
(5.04586 -0.0161628 0.0038185)
(5.04496 -0.0214099 0.00384098)
(5.04254 -0.0310667 0.00387655)
(5.03797 -0.0629877 0.00392335)
(4.93451 -0.0444399 0.00393878)
(4.92098 0.0392099 -0.00306636)
(5.02581 0.0452289 -0.0030433)
(5.03846 0.00587575 -0.00304192)
(5.04317 -0.00502382 -0.00303634)
(5.04538 -0.0114419 -0.00303719)
(5.04586 -0.0161585 -0.00304224)
(5.04495 -0.0213998 -0.00305154)
(5.04253 -0.0310493 -0.00306471)
(5.03794 -0.0629714 -0.00307607)
(4.93447 -0.0444349 -0.00310066)
(4.9207 0.0391966 -0.0112869)
(5.02549 0.0452107 -0.0112151)
(5.0382 0.00587163 -0.0111186)
(5.04292 -0.00502637 -0.0110748)
(5.04514 -0.0114554 -0.0110627)
(5.04562 -0.0161818 -0.0110802)
(5.04471 -0.0214315 -0.0111241)
(5.04228 -0.0310818 -0.0111951)
(5.03767 -0.0629794 -0.0112909)
(4.93425 -0.044428 -0.0113688)
(4.92026 0.0391898 -0.024822)
(5.02487 0.0452507 -0.024649)
(5.03763 0.0059307 -0.0243643)
(5.04236 -0.00501232 -0.0242603)
(5.04458 -0.0114788 -0.0242342)
(5.04505 -0.0162375 -0.0242656)
(5.04415 -0.0215185 -0.0243472)
(5.04172 -0.0311997 -0.0244917)
(5.03711 -0.0630493 -0.0247341)
(4.93384 -0.0444302 -0.0249205)
(4.92014 0.0392713 -0.0607599)
(5.02423 0.0455838 -0.0607824)
(5.03667 0.00624477 -0.0601029)
(5.04128 -0.00492742 -0.0598281)
(5.04343 -0.011499 -0.0597391)
(5.04389 -0.0163305 -0.0597572)
(5.04301 -0.0216912 -0.0598595)
(5.04065 -0.0314964 -0.0600549)
(5.03615 -0.0633233 -0.0604419)
(4.93335 -0.0445069 -0.0604156)
(4.82784 0.0397713 -0.0440157)
(4.92863 0.0478722 -0.0441591)
(4.93621 0.00866932 -0.0437154)
(4.9392 -0.0039127 -0.0435222)
(4.94062 -0.0110867 -0.0434599)
(4.94088 -0.016375 -0.0434605)
(4.94025 -0.0221475 -0.0435087)
(4.93872 -0.032494 -0.0436024)
(4.93602 -0.0641771 -0.0438043)
(4.83592 -0.0446388 -0.043662)
(4.62716 0.0779486 0.0799948)
(4.82545 0.106391 0.0828836)
(4.78185 0.0335258 0.0839444)
(4.76243 -0.00468466 0.0844816)
(4.75263 -0.0293368 0.0849971)
(4.74882 -0.0487639 0.085186)
(4.75135 -0.0664568 0.0851169)
(4.76417 -0.0900098 0.0848609)
(4.79245 -0.13971 0.0844662)
(4.58678 -0.0882986 0.0819682)
(4.8509 0.0823102 0.117564)
(5.05431 0.115593 0.121359)
(5.00105 0.0402543 0.122685)
(4.97924 -0.00179003 0.123354)
(4.96834 -0.0278359 0.124045)
(4.96425 -0.048742 0.124345)
(4.96715 -0.0678147 0.124347)
(4.98121 -0.0932371 0.124134)
(5.01215 -0.145297 0.123735)
(4.7992 -0.0916009 0.120525)
(4.82836 0.0826663 0.0606483)
(5.03217 0.116314 0.0620213)
(4.97784 0.0407405 0.0623393)
(4.95568 -0.00151638 0.0625134)
(4.9446 -0.0276701 0.0627336)
(4.94048 -0.0487383 0.0629085)
(4.94348 -0.0679052 0.0630536)
(4.95782 -0.0933708 0.0631697)
(4.98933 -0.145634 0.0632128)
(4.77569 -0.0918441 0.0620575)
(4.81728 0.082843 0.0324494)
(5.02145 0.116497 0.0330301)
(4.96704 0.0407306 0.033187)
(4.94483 -0.00149925 0.0332442)
(4.93371 -0.0276254 0.0333211)
(4.92959 -0.0486789 0.0334126)
(4.93262 -0.0678258 0.0335177)
(4.94704 -0.0932911 0.0336074)
(4.97869 -0.145735 0.0336054)
(4.76464 -0.0919833 0.0331275)
(4.81385 0.0829409 0.0110891)
(5.0182 0.116606 0.0112475)
(4.9637 0.0407317 0.011329)
(4.94146 -0.00149961 0.0113518)
(4.93033 -0.0276003 0.01138)
(4.9262 -0.048629 0.011415)
(4.92925 -0.0677575 0.0114561)
(4.94371 -0.0932379 0.0114884)
(4.97543 -0.145799 0.0114719)
(4.7612 -0.0920674 0.01135)
(4.81411 0.0829475 -0.00902011)
(5.01844 0.116656 -0.00921594)
(4.96383 0.0407836 -0.00920897)
(4.94156 -0.0014806 -0.00920244)
(4.93042 -0.0275862 -0.00920085)
(4.92629 -0.0486213 -0.00921498)
(4.92936 -0.0677571 -0.00924335)
(4.94384 -0.0932535 -0.0092742)
(4.97562 -0.145815 -0.00928465)
(4.76139 -0.0920703 -0.00909908)
(4.818 0.0828627 -0.0305532)
(5.02213 0.116642 -0.0311666)
(4.96738 0.040883 -0.0312449)
(4.94509 -0.00144302 -0.0312749)
(4.93396 -0.0275844 -0.031325)
(4.92983 -0.0486574 -0.0313969)
(4.9329 -0.0678268 -0.0314897)
(4.94738 -0.0933376 -0.0315781)
(4.9792 -0.145784 -0.0315993)
(4.76518 -0.0919923 -0.0310653)
(4.82947 0.0826973 -0.0590466)
(5.03322 0.116541 -0.0604422)
(4.97836 0.0409769 -0.0606976)
(4.95609 -0.00142862 -0.0608489)
(4.94497 -0.0276058 -0.0610454)
(4.94084 -0.0487032 -0.0612031)
(4.94389 -0.0679056 -0.0613361)
(4.95835 -0.0934429 -0.0614496)
(4.99012 -0.14571 -0.0615098)
(4.77651 -0.0918581 -0.0603105)
(4.85233 0.0823519 -0.116476)
(5.05563 0.115879 -0.120292)
(5.00173 0.0405494 -0.121601)
(4.97977 -0.00167732 -0.122256)
(4.96882 -0.0277516 -0.122937)
(4.96472 -0.0486946 -0.123227)
(4.96769 -0.0678113 -0.123217)
(4.98189 -0.0933224 -0.122996)
(5.01316 -0.145388 -0.122596)
(4.80025 -0.0916174 -0.119356)
(4.6284 0.0779794 -0.0796149)
(4.8266 0.106584 -0.0825163)
(4.78257 0.0337263 -0.0835858)
(4.76305 -0.004595 -0.084121)
(4.75321 -0.0292571 -0.0846378)
(4.7494 -0.0486966 -0.0848234)
(4.75198 -0.0664111 -0.084748)
(4.7649 -0.0900175 -0.0844856)
(4.7934 -0.139727 -0.0840825)
(4.58778 -0.0882882 -0.0815735)
(4.39155 0.060688 0.08418)
(4.72513 0.060912 0.0877508)
(4.71031 -0.0129026 0.0868288)
(4.68773 -0.04179 0.0869944)
(4.67219 -0.0688407 0.0870568)
(4.66461 -0.0876196 0.0872525)
(4.66658 -0.101312 0.0874661)
(4.68117 -0.114115 0.0878375)
(4.70257 -0.148687 0.0887418)
(4.36927 -0.0894947 0.0846464)
(4.68171 0.0624521 0.129171)
(5.03413 0.0589272 0.134255)
(5.03924 -0.016927 0.132974)
(5.02182 -0.0417529 0.133172)
(5.00928 -0.0687092 0.13327)
(5.00288 -0.0871751 0.13362)
(5.00421 -0.100819 0.134055)
(5.01596 -0.113237 0.134732)
(5.03122 -0.14993 0.136143)
(4.68557 -0.0919231 0.130343)
(4.64681 0.0616759 0.0743943)
(4.9995 0.0571811 0.0775152)
(5.00569 -0.0181999 0.0770048)
(4.98832 -0.0421723 0.0769869)
(4.97576 -0.0689529 0.0770767)
(4.9694 -0.0872062 0.077337)
(4.97081 -0.100595 0.077717)
(4.98261 -0.112467 0.0782206)
(4.99777 -0.148704 0.0789053)
(4.65243 -0.0912684 0.075656)
(4.62645 0.061531 0.04441)
(4.97925 0.0567439 0.0461892)
(4.98507 -0.0186242 0.0460373)
(4.96742 -0.0424186 0.0460154)
(4.95469 -0.0691093 0.0460558)
(4.94827 -0.0872388 0.0462037)
(4.94975 -0.100496 0.0464381)
(4.96174 -0.112199 0.0467136)
(4.97713 -0.14846 0.0469654)
(4.63171 -0.0911906 0.0451666)
(4.61852 0.0615552 0.0163291)
(4.97143 0.0566058 0.0169135)
(4.97715 -0.0188579 0.0168424)
(4.95938 -0.0425472 0.0168297)
(4.94657 -0.0691691 0.0168406)
(4.94012 -0.0872117 0.0169041)
(4.94163 -0.10039 0.0170099)
(4.9537 -0.112029 0.0171303)
(4.96916 -0.148401 0.0172384)
(4.62361 -0.0912215 0.016661)
(4.61847 0.0615399 -0.0118638)
(4.9714 0.0565093 -0.0124775)
(4.97734 -0.0189509 -0.0124934)
(4.95959 -0.0425626 -0.0124827)
(4.94678 -0.0691603 -0.0124908)
(4.94033 -0.0871725 -0.0125046)
(4.94184 -0.100324 -0.0125251)
(4.95388 -0.111926 -0.0125471)
(4.96926 -0.148303 -0.0125177)
(4.62371 -0.0911828 -0.0118983)
(4.62628 0.0614849 -0.0403585)
(4.97914 0.0564644 -0.0421604)
(4.98558 -0.0188917 -0.0420835)
(4.968 -0.0424648 -0.0420623)
(4.95528 -0.0690842 -0.0420992)
(4.94888 -0.0871236 -0.0422021)
(4.95035 -0.100305 -0.0423603)
(4.96226 -0.111902 -0.0425479)
(4.97738 -0.148177 -0.0426792)
(4.63198 -0.0910773 -0.0408461)
(4.6465 0.0616053 -0.0710222)
(4.9993 0.0567467 -0.0741626)
(5.00646 -0.0186134 -0.0737153)
(4.9892 -0.0422416 -0.0736969)
(4.97666 -0.0689129 -0.0737826)
(4.97032 -0.087029 -0.0740054)
(4.97172 -0.1003 -0.0743241)
(4.9834 -0.112007 -0.0747555)
(4.99814 -0.148266 -0.0753415)
(4.65283 -0.0910931 -0.0720678)
(4.68135 0.0623536 -0.127014)
(5.03396 0.0583717 -0.132091)
(5.04027 -0.0174438 -0.130834)
(5.023 -0.0418378 -0.131042)
(5.01049 -0.068656 -0.13113)
(5.00412 -0.086949 -0.131456)
(5.00544 -0.100446 -0.131854)
(5.01704 -0.112657 -0.132484)
(5.03176 -0.149371 -0.133841)
(4.68614 -0.0916984 -0.128032)
(4.39205 0.0605665 -0.0834871)
(4.7257 0.0604567 -0.087041)
(4.7117 -0.013288 -0.0861134)
(4.68924 -0.0418505 -0.0862867)
(4.67371 -0.0687651 -0.0863413)
(4.66617 -0.0873912 -0.0865289)
(4.66815 -0.10096 -0.0867318)
(4.68267 -0.113619 -0.0870897)
(4.70374 -0.148208 -0.0879849)
(4.37056 -0.0892991 -0.08389)
(4.52193 0.0607988 0.0705335)
(4.93932 0.067377 0.0787808)
(4.83511 -0.0235613 0.0789653)
(4.77126 -0.0791121 0.0788147)
(4.72786 -0.11391 0.0795345)
(4.70761 -0.134641 0.0799196)
(4.71042 -0.145425 0.0801805)
(4.7378 -0.153399 0.0805182)
(4.77378 -0.17372 0.0808872)
(4.30529 -0.0934872 0.073543)
(5.05397 0.0689021 0.112941)
(5.47363 0.0872324 0.125008)
(5.33654 -0.00571741 0.124992)
(5.26843 -0.0732378 0.124671)
(5.22361 -0.112105 0.125591)
(5.20366 -0.138279 0.126192)
(5.20888 -0.154086 0.126742)
(5.24228 -0.168299 0.127475)
(5.29239 -0.193427 0.128178)
(4.81048 -0.10436 0.117422)
(5.04281 0.0681611 0.0709629)
(5.45879 0.0869324 0.0773727)
(5.31882 -0.00532723 0.0771906)
(5.24997 -0.0733772 0.0769869)
(5.20473 -0.112216 0.0771788)
(5.18473 -0.138517 0.077514)
(5.19027 -0.154349 0.0780273)
(5.22435 -0.168521 0.0787045)
(5.27586 -0.193155 0.0792305)
(4.79613 -0.103974 0.0731149)
(5.02272 0.0678547 0.0460463)
(5.43758 0.0863173 0.0496879)
(5.29706 -0.00603591 0.0495184)
(5.22776 -0.0738925 0.0493609)
(5.18221 -0.112529 0.049379)
(5.16212 -0.138606 0.0495468)
(5.16776 -0.154193 0.0498606)
(5.20208 -0.168151 0.050271)
(5.25396 -0.192647 0.0504843)
(4.77492 -0.103671 0.0469608)
(5.01409 0.0677501 0.0180749)
(5.42855 0.0861075 0.0192678)
(5.28749 -0.00634412 0.019227)
(5.21792 -0.074156 0.0191705)
(5.17219 -0.112674 0.0191869)
(5.15204 -0.138613 0.0192614)
(5.15774 -0.154066 0.0193936)
(5.19224 -0.167958 0.0195586)
(5.24443 -0.192471 0.0196179)
(4.76564 -0.10359 0.0184857)
(5.01519 0.0677165 -0.0110574)
(5.42949 0.0861889 -0.0122351)
(5.28804 -0.00622155 -0.0121549)
(5.21841 -0.0741334 -0.0120922)
(5.17266 -0.112639 -0.0120424)
(5.15251 -0.138577 -0.0120449)
(5.15825 -0.154039 -0.0120931)
(5.19285 -0.167988 -0.0121736)
(5.24527 -0.192504 -0.0122428)
(4.76663 -0.103599 -0.0110038)
(5.02588 0.0677631 -0.0397134)
(5.4403 0.0865576 -0.043334)
(5.29862 -0.00567957 -0.0431272)
(5.22915 -0.0738227 -0.0429558)
(5.18355 -0.112426 -0.0429109)
(5.16345 -0.138503 -0.0430119)
(5.16921 -0.154117 -0.0432497)
(5.20381 -0.168245 -0.0435852)
(5.25639 -0.192748 -0.04381)
(4.77778 -0.1037 -0.040195)
(5.04774 0.0680197 -0.0658021)
(5.46302 0.0873152 -0.0721679)
(5.32124 -0.00476501 -0.0719408)
(5.25213 -0.0732602 -0.0717166)
(5.20681 -0.112052 -0.0718475)
(5.18681 -0.138354 -0.0721262)
(5.19252 -0.154231 -0.0725798)
(5.22703 -0.168671 -0.0732041)
(5.27962 -0.193314 -0.0737474)
(4.80055 -0.10402 -0.0675734)
(5.06044 0.0687488 -0.109582)
(5.47911 0.087743 -0.12166)
(5.33979 -0.00499357 -0.121604)
(5.27136 -0.0730723 -0.121245)
(5.22644 -0.111886 -0.122133)
(5.20649 -0.138072 -0.122696)
(5.21193 -0.153944 -0.123203)
(5.24588 -0.1685 -0.123909)
(5.29734 -0.193655 -0.124617)
(4.81627 -0.104433 -0.113813)
(4.52831 0.0607725 -0.0693706)
(4.94486 0.0678334 -0.0776503)
(4.83897 -0.0230132 -0.0778213)
(4.77483 -0.0789478 -0.0776459)
(4.73132 -0.113679 -0.0783632)
(4.71109 -0.134366 -0.0787336)
(4.71413 -0.145163 -0.0789753)
(4.74198 -0.153373 -0.0793002)
(4.77903 -0.173783 -0.0796598)
(4.31124 -0.0935013 -0.0722976)
(4.05587 0.00521946 0.0625053)
(4.70067 -0.0637013 0.0686017)
(4.75024 -0.155714 0.0693309)
(4.69377 -0.168968 0.0701674)
(4.64715 -0.185004 0.0696962)
(4.61789 -0.175859 0.0699735)
(4.60551 -0.156909 0.0705601)
(4.60456 -0.129277 0.0711651)
(4.56534 -0.122201 0.0719451)
(3.94111 -0.0633744 0.0631671)
(4.55164 0.020142 0.102636)
(5.28043 -0.0549973 0.112589)
(5.37915 -0.163792 0.113219)
(5.33089 -0.167307 0.113988)
(5.28971 -0.18769 0.113334)
(5.26455 -0.179147 0.113844)
(5.25292 -0.160451 0.114909)
(5.24684 -0.130225 0.116089)
(5.1867 -0.126669 0.117536)
(4.49226 -0.0678522 0.10401)
(4.54595 0.0199063 0.0660278)
(5.27778 -0.0569853 0.0732086)
(5.37936 -0.166136 0.0723732)
(5.33092 -0.168218 0.0717724)
(5.28958 -0.188371 0.0712664)
(5.26459 -0.179024 0.0715088)
(5.25318 -0.159702 0.0723043)
(5.24709 -0.128575 0.0734223)
(5.18582 -0.124442 0.0745332)
(4.49002 -0.0666586 0.0662766)
(4.52925 0.0192002 0.044346)
(5.25979 -0.0585942 0.0489281)
(5.36094 -0.167538 0.048381)
(5.31169 -0.169228 0.0478323)
(5.26982 -0.188957 0.047515)
(5.24461 -0.179026 0.0476352)
(5.23326 -0.159207 0.0481269)
(5.22746 -0.127588 0.0488511)
(5.16643 -0.123247 0.0495428)
(4.47206 -0.0660443 0.0445484)
(4.52125 0.0189275 0.0185905)
(5.25107 -0.0594714 0.0202241)
(5.35227 -0.168444 0.0200539)
(5.30259 -0.169794 0.0198587)
(5.26044 -0.189258 0.0197442)
(5.23511 -0.178976 0.0198226)
(5.22377 -0.158848 0.0200656)
(5.21811 -0.126921 0.0203949)
(5.15711 -0.122578 0.0207445)
(4.46341 -0.0657342 0.019005)
(4.52153 0.0190226 -0.00853504)
(5.25142 -0.059574 -0.00993597)
(5.35317 -0.168646 -0.00955828)
(5.30349 -0.169809 -0.00931374)
(5.26131 -0.189227 -0.00918009)
(5.23601 -0.178859 -0.00911056)
(5.2247 -0.158655 -0.00910608)
(5.21902 -0.126613 -0.00918883)
(5.15778 -0.122332 -0.00919761)
(4.464 -0.0656315 -0.0076692)
(4.53003 0.0194729 -0.0352831)
(5.26079 -0.0588877 -0.0396371)
(5.36353 -0.168115 -0.03891)
(5.31427 -0.169269 -0.0383115)
(5.27234 -0.188865 -0.0379744)
(5.24719 -0.178686 -0.0379601)
(5.23591 -0.158649 -0.0382287)
(5.23006 -0.126691 -0.0387362)
(5.16834 -0.122524 -0.0391336)
(4.47375 -0.0657423 -0.0343423)
(4.54709 0.0203476 -0.0586157)
(5.27932 -0.0574482 -0.0656139)
(5.38341 -0.16703 -0.0646509)
(5.33494 -0.168276 -0.0639916)
(5.29351 -0.188224 -0.0634728)
(5.26862 -0.178495 -0.0636033)
(5.25734 -0.158838 -0.0642211)
(5.25117 -0.127197 -0.065165)
(5.18883 -0.123345 -0.0660422)
(4.4927 -0.0662011 -0.0579735)
(4.55307 0.0207019 -0.0978747)
(5.28265 -0.0555567 -0.107632)
(5.38452 -0.164904 -0.108254)
(5.33627 -0.16736 -0.109032)
(5.29501 -0.1875 -0.108353)
(5.26999 -0.178475 -0.108796)
(5.25852 -0.159362 -0.109758)
(5.2523 -0.128489 -0.110803)
(5.19076 -0.125265 -0.112082)
(4.49575 -0.0672702 -0.0987211)
(4.05907 0.00544308 -0.0609092)
(4.7045 -0.0643739 -0.0668699)
(4.75653 -0.156664 -0.0676507)
(4.70011 -0.169055 -0.0685255)
(4.65346 -0.184798 -0.0680348)
(4.62433 -0.175186 -0.0682946)
(4.61212 -0.155829 -0.0688525)
(4.6112 -0.127689 -0.0693988)
(4.57105 -0.120848 -0.0701176)
(3.94657 -0.0628137 -0.0614199)
(4.54659 -0.0275664 0.0450772)
(4.97358 -0.0770401 0.0584478)
(4.72768 -0.164927 0.0539908)
(4.59101 -0.245709 0.0507569)
(4.49632 -0.24862 0.0500946)
(4.43978 -0.234016 0.0498796)
(4.42503 -0.207095 0.0504484)
(4.45943 -0.184127 0.051983)
(4.52596 -0.166998 0.0528528)
(3.95398 -0.0778304 0.0411879)
(5.30575 -0.0411546 0.0793023)
(5.76955 -0.0716111 0.0983632)
(5.4729 -0.140932 0.0927176)
(5.33124 -0.246831 0.0881701)
(5.23456 -0.254534 0.0869415)
(5.17653 -0.247929 0.086654)
(5.16458 -0.228785 0.0877062)
(5.20997 -0.217098 0.0903164)
(5.30288 -0.203838 0.0918695)
(4.68414 -0.0978518 0.0743832)
(5.3338 -0.0447029 0.0562468)
(5.79193 -0.0744828 0.0645596)
(5.48902 -0.141652 0.0623749)
(5.34502 -0.24895 0.0598182)
(5.24759 -0.255487 0.0586892)
(5.1894 -0.248389 0.0585314)
(5.17789 -0.228785 0.0593532)
(5.22488 -0.217304 0.0611044)
(5.32148 -0.203991 0.0623851)
(4.7068 -0.0980025 0.0537165)
(5.32662 -0.0461292 0.0415922)
(5.7807 -0.0767417 0.0460544)
(5.47507 -0.143938 0.0444038)
(5.32944 -0.250874 0.0429323)
(5.23123 -0.256428 0.0421329)
(5.17275 -0.248461 0.0419878)
(5.16136 -0.228001 0.0424929)
(5.20903 -0.216022 0.0436211)
(5.3072 -0.202638 0.0445195)
(4.6958 -0.0973745 0.0395166)
(5.32349 -0.0469947 0.0194257)
(5.77575 -0.0779019 0.0208454)
(5.46848 -0.144987 0.0200507)
(5.32212 -0.25187 0.0195042)
(5.22351 -0.256909 0.019237)
(5.16486 -0.248467 0.0192121)
(5.15352 -0.22755 0.0194637)
(5.20158 -0.215364 0.0200049)
(5.3007 -0.201873 0.0204496)
(4.69103 -0.0970003 0.0188839)
(5.326 -0.0473391 -0.00433315)
(5.77806 -0.078008 -0.00578213)
(5.46997 -0.144816 -0.00577731)
(5.32355 -0.251906 -0.00539102)
(5.22495 -0.256872 -0.00509303)
(5.16629 -0.248382 -0.00496283)
(5.155 -0.227428 -0.00494379)
(5.20328 -0.215363 -0.00496494)
(5.303 -0.201794 -0.00498242)
(4.69386 -0.0969595 -0.00316024)
(5.33396 -0.0471223 -0.0280273)
(5.78739 -0.0770593 -0.0325285)
(5.47938 -0.143465 -0.0315496)
(5.33353 -0.25098 -0.0302241)
(5.23538 -0.256324 -0.0293898)
(5.17689 -0.248213 -0.0291433)
(5.16564 -0.227644 -0.0293996)
(5.21398 -0.216018 -0.0300529)
(5.31393 -0.202418 -0.0305602)
(4.70421 -0.0972625 -0.0253081)
(5.34548 -0.0462655 -0.0454909)
(5.80247 -0.0749193 -0.0537624)
(5.4958 -0.140895 -0.05203)
(5.35145 -0.249109 -0.0495849)
(5.25408 -0.255311 -0.0483956)
(5.19588 -0.247995 -0.0481536)
(5.1846 -0.228224 -0.0487871)
(5.23264 -0.217293 -0.050209)
(5.33203 -0.203629 -0.051252)
(4.71995 -0.0978152 -0.042457)
(5.3212 -0.0431409 -0.0726547)
(5.78318 -0.0721682 -0.0917106)
(5.48189 -0.139881 -0.086237)
(5.3398 -0.246994 -0.0816702)
(5.2432 -0.254284 -0.0804098)
(5.18517 -0.247443 -0.0800647)
(5.17353 -0.228144 -0.0810199)
(5.22028 -0.217216 -0.0835175)
(5.31668 -0.203592 -0.0850058)
(4.7014 -0.0977291 -0.0674639)
(4.56303 -0.0289642 -0.0428871)
(4.98841 -0.0773181 -0.056326)
(4.73832 -0.16414 -0.0518412)
(4.60104 -0.245848 -0.0485456)
(4.50635 -0.248347 -0.0478868)
(4.44984 -0.233439 -0.0476464)
(4.43549 -0.206282 -0.0481882)
(4.47124 -0.18385 -0.0497221)
(4.54111 -0.166782 -0.050587)
(3.97182 -0.0778532 -0.0388899)
(3.73061 -0.017059 0.0267765)
(4.55184 -0.230614 0.0289907)
(4.58775 -0.421664 0.0315744)
(4.47025 -0.367046 0.0310183)
(4.38588 -0.336486 0.029609)
(4.32907 -0.265397 0.0299008)
(4.2901 -0.179331 0.0305219)
(4.2637 -0.0738042 0.0304653)
(4.16293 -0.0170429 0.0307687)
(3.36394 0.00604843 0.0247612)
(4.33741 0.0347121 0.0574631)
(5.28622 -0.195074 0.0644477)
(5.37951 -0.440101 0.0631177)
(5.26242 -0.366994 0.059756)
(5.1775 -0.343407 0.0571693)
(5.1258 -0.272227 0.0574688)
(5.09051 -0.18426 0.0588293)
(5.06055 -0.0711384 0.0601705)
(4.92508 -0.0245504 0.0624961)
(3.94934 0.00239438 0.0510691)
(4.36547 0.038273 0.0513513)
(5.31491 -0.196745 0.0568017)
(5.40667 -0.446617 0.0510381)
(5.2878 -0.369477 0.0467123)
(5.20233 -0.34459 0.0443389)
(5.15089 -0.271712 0.0440703)
(5.11599 -0.182389 0.0451501)
(5.08726 -0.0671356 0.0475234)
(4.95366 -0.0209384 0.0509312)
(3.97181 0.00400369 0.0440897)
(4.36295 0.0377499 0.0393193)
(5.30729 -0.200534 0.0433594)
(5.39681 -0.451468 0.0400882)
(5.27669 -0.372411 0.0370504)
(5.1905 -0.345958 0.0354689)
(5.13871 -0.271628 0.0351567)
(5.1037 -0.181006 0.0358344)
(5.07534 -0.0642682 0.0374001)
(4.94338 -0.018236 0.0395097)
(3.96471 0.0049888 0.0346539)
(4.36138 0.0375812 0.0192148)
(5.30335 -0.202438 0.0209875)
(5.39261 -0.453999 0.0202567)
(5.27178 -0.373919 0.0191908)
(5.18514 -0.346702 0.0186219)
(5.1332 -0.271545 0.0185963)
(5.0982 -0.180176 0.018975)
(5.06997 -0.0625948 0.0196408)
(4.93856 -0.0168336 0.0204787)
(3.96119 0.00545849 0.0184526)
(4.36325 0.038008 -0.00221937)
(5.30495 -0.202457 -0.00301594)
(5.39492 -0.454465 -0.00140315)
(5.27401 -0.373997 -0.000630175)
(5.18728 -0.346649 -0.000100532)
(5.13539 -0.271336 0.000239891)
(5.10048 -0.17979 0.000363484)
(5.07228 -0.0619039 0.00023247)
(4.94075 -0.0165566 2.67994e-05)
(3.96296 0.0054438 0.00108408)
(4.36914 0.0389561 -0.0238938)
(5.31233 -0.200606 -0.0270275)
(5.40366 -0.4528 -0.0231015)
(5.28321 -0.372638 -0.0203384)
(5.19676 -0.34579 -0.0188028)
(5.14515 -0.271009 -0.0182008)
(5.11041 -0.17985 -0.0184147)
(5.08221 -0.062173 -0.0194702)
(4.95021 -0.0172933 -0.0209521)
(3.97045 0.0050354 -0.0169275)
(4.37519 0.0402259 -0.0391157)
(5.32298 -0.19696 -0.0437841)
(5.4174 -0.448773 -0.0375278)
(5.29795 -0.369851 -0.0333364)
(5.21213 -0.344334 -0.0310063)
(5.16097 -0.270737 -0.0304901)
(5.1265 -0.180571 -0.0312086)
(5.09812 -0.0638486 -0.033188)
(4.96458 -0.0195015 -0.0361723)
(3.9814 0.00403045 -0.0300588)
(4.34954 0.0374808 -0.0498381)
(5.29696 -0.194929 -0.0563174)
(5.39359 -0.442754 -0.054632)
(5.27593 -0.367342 -0.0513245)
(5.19054 -0.343052 -0.0487103)
(5.13923 -0.270987 -0.0488697)
(5.10451 -0.181989 -0.0500268)
(5.07492 -0.067063 -0.0511464)
(4.93937 -0.0227317 -0.0532382)
(3.96105 0.00249253 -0.0422906)
(3.74314 -0.0145903 -0.0241426)
(4.56357 -0.230636 -0.0261002)
(4.60291 -0.424083 -0.0286393)
(4.4851 -0.367415 -0.0281361)
(4.40047 -0.33612 -0.0266818)
(4.34407 -0.264109 -0.0269459)
(4.30552 -0.176981 -0.0275068)
(4.27941 -0.0697023 -0.0273581)
(4.17836 -0.0145473 -0.0275349)
(3.3767 0.00677883 -0.0217022)
(4.99768 -0.317774 0.0301008)
(5.18453 -0.480054 0.0357416)
(4.69028 -0.45399 0.0243332)
(4.457 -0.51973 0.0182667)
(4.31887 -0.440364 0.0163942)
(4.20472 -0.366317 0.0156323)
(4.14663 -0.272941 0.0159873)
(4.1879 -0.184767 0.0210613)
(4.37166 -0.0859345 0.0284947)
(4.04552 -0.0257223 0.0307703)
(5.74866 -0.348439 0.0603137)
(6.05816 -0.481077 0.0615279)
(5.51685 -0.421733 0.0478928)
(5.27571 -0.525575 0.0395153)
(5.14008 -0.45524 0.0361235)
(5.02165 -0.387439 0.0347513)
(4.95949 -0.302616 0.0351094)
(5.00724 -0.225592 0.0415712)
(5.2154 -0.10959 0.0516279)
(4.84855 -0.0335174 0.0550057)
(5.81262 -0.358111 0.0565806)
(6.11585 -0.492419 0.0514867)
(5.55853 -0.428129 0.0431331)
(5.31125 -0.531054 0.0364682)
(5.17566 -0.456989 0.0337841)
(5.05637 -0.388072 0.0327158)
(4.99393 -0.301032 0.0332017)
(5.04429 -0.22088 0.0369162)
(5.26068 -0.101824 0.0439038)
(4.90355 -0.0288304 0.04644)
(5.82125 -0.362865 0.0422493)
(6.1195 -0.499699 0.0402347)
(5.55631 -0.433961 0.0352941)
(5.30601 -0.535256 0.0320034)
(5.16951 -0.458982 0.0300086)
(5.04965 -0.388475 0.0291967)
(4.98734 -0.299641 0.0295026)
(5.03892 -0.217255 0.0313703)
(5.25881 -0.0967976 0.0351556)
(4.90697 -0.0259437 0.0353266)
(5.82478 -0.364993 0.022764)
(6.12127 -0.50268 0.0221652)
(5.55556 -0.436302 0.0202533)
(5.30401 -0.537345 0.0192573)
(5.16711 -0.460011 0.018592)
(5.04704 -0.388593 0.0183484)
(4.98476 -0.298892 0.0185736)
(5.03686 -0.215644 0.0194853)
(5.25834 -0.0943504 0.0212892)
(4.90892 -0.024465 0.0217423)
(5.82799 -0.365264 0.00339529)
(6.12481 -0.502722 0.00302402)
(5.55839 -0.435985 0.00319525)
(5.30677 -0.537319 0.00435083)
(5.1701 -0.459938 0.00510318)
(5.05009 -0.388428 0.00545711)
(4.98778 -0.29866 0.00557324)
(5.04007 -0.215421 0.00574923)
(5.26235 -0.0935531 0.00620934)
(4.91374 -0.0238217 0.00778613)
(5.83134 -0.363816 -0.0181389)
(6.13039 -0.500199 -0.0174079)
(5.56468 -0.4334 -0.0140688)
(5.31419 -0.535228 -0.0107812)
(5.17827 -0.458767 -0.00865995)
(5.05857 -0.387983 -0.00774125)
(4.99618 -0.298859 -0.00772261)
(5.04832 -0.21627 -0.0084585)
(5.27054 -0.0941668 -0.00994158)
(4.92103 -0.0239927 -0.00784603)
(5.8294 -0.359694 -0.0375185)
(6.13316 -0.493202 -0.0334577)
(5.57177 -0.427319 -0.0262518)
(5.32418 -0.531069 -0.0196181)
(5.18948 -0.456613 -0.0168171)
(5.07039 -0.387292 -0.0156519)
(5.00782 -0.299724 -0.0158676)
(5.05905 -0.219152 -0.018759)
(5.27948 -0.097364 -0.024046)
(4.92615 -0.0254697 -0.0247496)
(5.77134 -0.350944 -0.0487908)
(6.08137 -0.482545 -0.0501796)
(5.53478 -0.420531 -0.037233)
(5.29275 -0.525642 -0.0287535)
(5.15841 -0.454759 -0.0253123)
(5.04027 -0.386434 -0.0238848)
(4.97795 -0.301033 -0.0240768)
(5.02724 -0.223632 -0.0301775)
(5.24067 -0.104295 -0.0395783)
(4.87971 -0.0295477 -0.0422943)
(5.0222 -0.320809 -0.0263942)
(5.21064 -0.481803 -0.0318787)
(4.71073 -0.453117 -0.0206103)
(4.47645 -0.519965 -0.0144193)
(4.33915 -0.43988 -0.0125532)
(4.22519 -0.365284 -0.0117768)
(4.16721 -0.271196 -0.012072)
(4.20995 -0.182455 -0.0171259)
(4.39933 -0.0812338 -0.0245974)
(4.07988 -0.0229267 -0.0269137)
(4.28523 -0.181705 0.0789436)
(4.69094 -0.726976 0.059823)
(4.4506 -1.0178 0.0276773)
(4.35491 -0.685871 0.0112223)
(4.22332 -0.548255 0.0125826)
(4.12609 -0.407237 0.01232)
(4.05469 -0.206403 0.0131867)
(3.98227 0.0660398 0.0186626)
(3.88251 0.16232 0.0356218)
(2.91744 0.0960523 0.0397284)
(5.09124 -0.188575 0.128325)
(5.58617 -0.736483 0.108811)
(5.35109 -1.06821 0.0559612)
(5.21883 -0.720468 0.0293943)
(5.07413 -0.563535 0.0287795)
(4.96912 -0.418626 0.0275945)
(4.90258 -0.203124 0.0297175)
(4.84764 0.0892115 0.0410519)
(4.75771 0.15967 0.0697245)
(3.6169 0.0851417 0.0760184)
(5.16962 -0.198652 0.0891345)
(5.64253 -0.76319 0.0787841)
(5.39251 -1.09674 0.0475626)
(5.26328 -0.72804 0.033762)
(5.11772 -0.565569 0.0300479)
(5.01075 -0.419127 0.0282191)
(4.94343 -0.199484 0.0294272)
(4.888 0.102712 0.0357882)
(4.80754 0.173864 0.0511688)
(3.66894 0.0895346 0.0536138)
(5.18432 -0.203911 0.0537703)
(5.64666 -0.776982 0.0516876)
(5.39121 -1.11097 0.0395983)
(5.26266 -0.734373 0.0315698)
(5.11637 -0.568156 0.028393)
(5.00876 -0.419342 0.0273296)
(4.94098 -0.196912 0.0284255)
(4.88432 0.10974 0.0318923)
(4.80607 0.181408 0.0384423)
(3.66928 0.0919302 0.0374462)
(5.19156 -0.205857 0.0273997)
(5.64996 -0.782147 0.0279856)
(5.39252 -1.11704 0.0248471)
(5.26351 -0.737671 0.0217004)
(5.1169 -0.56947 0.0206136)
(5.00908 -0.419308 0.020546)
(4.94122 -0.195477 0.0212753)
(4.88417 0.113251 0.0228647)
(4.80736 0.184515 0.0254303)
(3.67219 0.0924881 0.0243882)
(5.19647 -0.206233 0.0046508)
(5.65471 -0.782712 0.00554992)
(5.39714 -1.11801 0.00833972)
(5.2679 -0.738072 0.00955942)
(5.12124 -0.569292 0.0107047)
(5.01343 -0.41897 0.0115802)
(4.94574 -0.194792 0.0120109)
(4.88872 0.114912 0.0121515)
(4.81318 0.185427 0.0121969)
(3.67952 0.092132 0.0123836)
(5.19961 -0.20538 -0.0231581)
(5.66044 -0.779562 -0.0202591)
(5.40479 -1.1143 -0.00954913)
(5.27546 -0.735684 -0.00322311)
(5.12893 -0.567718 -7.1917e-05)
(5.02138 -0.418348 0.00165859)
(4.95411 -0.194847 0.00164488)
(4.89747 0.114667 -0.000196427)
(4.82251 0.18433 -0.00378684)
(3.68981 0.0911046 -0.00306532)
(5.19412 -0.201339 -0.0646408)
(5.66483 -0.768062 -0.0536563)
(5.41382 -1.1026 -0.0237186)
(5.28376 -0.730023 -0.0114)
(5.1376 -0.564946 -0.00756228)
(5.03067 -0.41761 -0.00518083)
(4.96422 -0.196207 -0.00560496)
(4.90908 0.110958 -0.0103419)
(4.83385 0.179337 -0.0232363)
(3.70328 0.0885932 -0.0259126)
(5.12422 -0.191583 -0.114161)
(5.61529 -0.742005 -0.0944728)
(5.37854 -1.07582 -0.0412664)
(5.24586 -0.722915 -0.015148)
(5.10076 -0.562555 -0.0146118)
(4.99558 -0.416761 -0.013081)
(4.93019 -0.198856 -0.0147413)
(4.87552 0.099762 -0.025633)
(4.79338 0.166154 -0.0542862)
(3.66213 0.0838033 -0.0618081)
(4.32139 -0.184828 -0.0747388)
(4.72067 -0.732613 -0.0557598)
(4.4798 -1.02515 -0.0227417)
(4.38368 -0.688205 -0.00601276)
(4.25161 -0.547482 -0.00760441)
(4.15467 -0.405176 -0.00725888)
(4.08407 -0.202285 -0.00795129)
(4.01198 0.0759304 -0.0137847)
(3.91755 0.169209 -0.0317098)
(2.95638 0.0964072 -0.0367751)
(5.46902 -0.685918 0.101406)
(5.08156 -1.32013 0.0430565)
(4.39194 -0.967682 -0.0138488)
(4.23487 -0.753712 0.00789343)
(4.05595 -0.706053 0.00974532)
(3.90019 -0.590668 0.00488061)
(3.7652 -0.453096 -0.00310809)
(3.71735 -0.223399 -0.0106706)
(3.97602 0.165236 0.0140756)
(4.12213 0.192858 0.0684373)
(6.41372 -0.682705 0.166673)
(6.01855 -1.34839 0.0757515)
(5.18061 -1.02285 0.00145172)
(5.07816 -0.756382 0.0244775)
(4.90557 -0.727269 0.0242838)
(4.74879 -0.619875 0.0174411)
(4.60112 -0.487892 0.00766157)
(4.52965 -0.240091 -0.00417602)
(4.82246 0.182215 0.0239232)
(4.89199 0.214609 0.0868495)
(6.50763 -0.713496 0.103727)
(6.08405 -1.39706 0.0595067)
(5.22434 -1.04104 0.0296372)
(5.12711 -0.757796 0.031914)
(4.95183 -0.731305 0.028303)
(4.79384 -0.623238 0.0246393)
(4.64601 -0.489275 0.0221955)
(4.57409 -0.231577 0.0195262)
(4.87727 0.208237 0.0334905)
(4.95399 0.233241 0.0584695)
(6.51836 -0.725924 0.0600383)
(6.08762 -1.41733 0.0456595)
(5.22582 -1.05113 0.0331242)
(5.12966 -0.762274 0.0311666)
(4.95292 -0.734877 0.0283831)
(4.79449 -0.624841 0.0266998)
(4.64618 -0.489682 0.0257931)
(4.57425 -0.227849 0.024863)
(4.87979 0.21687 0.031733)
(4.96113 0.238811 0.0376081)
(6.52589 -0.73069 0.0340311)
(6.09225 -1.42547 0.0296841)
(5.2286 -1.05634 0.0253747)
(5.1326 -0.764817 0.0245133)
(4.95559 -0.736416 0.0238251)
(4.79707 -0.625357 0.0234102)
(4.64848 -0.489675 0.0230843)
(4.57643 -0.225693 0.0225203)
(4.88318 0.221205 0.0264144)
(4.96547 0.24161 0.0293211)
(6.53281 -0.731017 0.0113214)
(6.0977 -1.42624 0.0124031)
(5.2332 -1.05694 0.0143615)
(5.13789 -0.764409 0.0156999)
(4.96122 -0.736082 0.0169353)
(4.80302 -0.625056 0.0176327)
(4.6544 -0.489668 0.0177318)