/*--------------------------------*- C++ -*----------------------------------*\
| =========                 |                                                 |
| \\      /  F ield         | OpenFOAM: The Open Source CFD Toolbox           |
|  \\    /   O peration     | Version:  1.7.x                                 |
|   \\  /    A nd           | Web:      www.OpenFOAM.com                      |
|    \\/     M anipulation  |                                                 |
\*---------------------------------------------------------------------------*/
FoamFile
{
    version     2.0;
    format      ascii;
    class       volScalarField;
    location    "0.5";
    object      alpha1;
}
// * * * * * * * * * * * * * * * * * * * * * * * * * * * * * * * * * * * * * //

dimensions      [0 -3 0 0 1 0 0];

internalField   nonuniform List<scalar> 
8000
(
3.25108e-08
-1.39746e-08
2.65584e-07
2.14938e-07
2.11348e-05
5.38682e-05
2.90667e-05
1.23614e-05
1.60314e-05
-3.72591e-06
-2.63625e-07
1.21152e-07
-2.98276e-06
1.01842e-06
-0.000250941
-0.000606365
-0.00026499
-0.000126606
-0.000148628
2.46692e-05
-5.03783e-07
3.1481e-07
-6.54559e-06
6.58416e-06
-0.000501704
-0.00125119
-0.000778139
-0.000796011
-0.00038256
0.000208031
-3.33165e-07
3.57261e-07
-6.4826e-06
5.13103e-06
-0.00051815
-0.00124222
-0.000691745
-0.000814187
-0.000460305
0.000261507
-3.68855e-07
5.68923e-07
-6.40048e-06
3.93132e-06
-0.000486051
-0.0011613
-0.00058273
-0.000670745
-0.000439565
0.000239714
-6.46522e-07
1.06144e-06
-6.88821e-06
4.35612e-06
-0.000441672
-0.00111226
-0.000564099
-0.000566311
-0.000401032
0.000223194
-1.07428e-06
1.64994e-06
-7.28673e-06
4.92624e-06
-0.000373473
-0.00106123
-0.00062258
-0.000500194
-0.000363598
0.000216756
-1.30792e-06
1.53982e-06
-5.699e-06
1.69802e-06
-0.00024996
-0.000876739
-0.000676014
-0.000394367
-0.000293488
0.000174494
-7.17595e-07
7.67858e-07
-3.48824e-06
-1.69593e-09
-0.000170197
-0.000557963
-0.000280617
7.06748e-05
-0.000179447
4.61883e-05
7.29085e-08
-7.10411e-08
3.15406e-07
1.08573e-08
1.39823e-05
4.69678e-05
2.77238e-05
-3.25957e-06
1.77119e-05
-5.25013e-06
-7.51669e-08
-1.16273e-08
-6.08318e-07
-5.19379e-07
-5.15879e-05
-0.000124745
-6.43362e-05
-4.10405e-05
-4.16518e-05
9.92441e-06
5.53995e-07
2.19928e-07
6.78317e-06
-3.92604e-06
0.000605827
0.0013631
0.000511204
0.000396955
0.00038625
-6.2389e-05
8.364e-07
1.85201e-07
1.50369e-05
-1.91263e-05
0.00120947
0.00284983
0.00177286
0.00227434
0.000901474
-0.000599929
3.26398e-07
-1.40594e-07
1.49461e-05
-1.60358e-05
0.00123989
0.00282256
0.00157132
0.00232258
0.00110183
-0.000774885
5.4569e-07
-9.50837e-07
1.4933e-05
-1.33669e-05
0.00114106
0.00260569
0.00129102
0.00191506
0.001064
-0.0007117
1.46468e-06
-2.38818e-06
1.61816e-05
-1.41962e-05
0.001
0.00243899
0.00123256
0.00161825
0.000961032
-0.000654538
2.74043e-06
-3.87818e-06
1.66866e-05
-1.41092e-05
0.000789067
0.00223547
0.00136434
0.00142958
0.000850567
-0.000621678
3.28166e-06
-3.23438e-06
1.13158e-05
-3.01844e-06
0.000442557
0.00167646
0.00147396
0.00115046
0.000663103
-0.000481487
1.77235e-06
-1.48364e-06
6.91728e-06
-1.00114e-07
0.00031054
0.00104876
0.000510373
-9.45162e-05
0.000440114
-0.000119708
-1.84455e-07
1.3739e-07
-6.60072e-07
3.19486e-08
-2.67656e-05
-9.31573e-05
-5.62557e-05
-1.07675e-07
-4.40241e-05
1.37562e-05
1.05964e-07
1.37087e-07
9.26631e-07
1.25515e-06
8.57964e-05
0.000191638
9.16978e-05
9.00039e-05
7.41887e-05
-1.83953e-05
-6.09596e-07
-1.69212e-06
-1.07718e-05
3.91001e-06
-0.00107033
-0.00217537
-0.000604925
-0.000837337
-0.000667286
0.000103007
-2.44291e-07
-2.42961e-06
-2.43723e-05
2.55098e-05
-0.00209683
-0.00456559
-0.00280675
-0.00447068
-0.00133654
0.00112056
7.77078e-07
-1.16427e-06
-2.4563e-05
1.95366e-05
-0.00211806
-0.00449681
-0.00249137
-0.00457798
-0.00166044
0.00148931
1.70389e-08
9.53887e-07
-2.50894e-05
1.61357e-05
-0.00189268
-0.00407105
-0.00198529
-0.0037696
-0.00163217
0.00137095
-2.14782e-06
3.91388e-06
-2.73968e-05
1.8623e-05
-0.00156853
-0.00367661
-0.00187066
-0.00317422
-0.00146344
0.00124458
-4.81896e-06
6.4907e-06
-2.70875e-05
1.76981e-05
-0.00110403
-0.003165
-0.00210332
-0.00278648
-0.00126518
0.00115463
-5.51449e-06
4.56893e-06
-1.43104e-05
-4.0053e-06
-0.000418894
-0.00199189
-0.00227766
-0.0022696
-0.000938128
0.000857365
-2.89538e-06
1.85312e-06
-8.93136e-06
-3.38597e-06
-0.000329879
-0.00122679
-0.00060551
1.35502e-05
-0.00069099
0.000202515
3.08049e-07
-1.55372e-07
8.71304e-07
-3.59699e-08
2.77963e-05
0.000107573
7.14033e-05
1.74628e-05
7.26669e-05
-2.47299e-05
-1.42089e-07
-4.30711e-07
-1.37573e-06
-2.32512e-06
-0.000147688
-0.000306777
-0.000131702
-0.00018978
-0.000140568
3.69619e-05
2.79752e-07
5.11564e-06
1.80368e-05
-1.55119e-05
0.00195825
0.00362767
0.000600808
0.00178878
0.00132048
-0.000218554
-2.24506e-06
6.14031e-06
4.20482e-05
-6.53882e-05
0.00371121
0.00759557
0.00456614
0.00875655
0.00203072
-0.00247525
-4.34667e-06
2.20236e-06
4.31302e-05
-5.7623e-05
0.00367207
0.00740911
0.00406058
0.00889219
0.00251842
-0.00336987
-1.82805e-06
-2.8491e-06
4.49255e-05
-5.21428e-05
0.00317018
0.00655581
0.00314683
0.00730041
0.0025532
-0.00311561
3.81668e-06
-8.77921e-06
4.89534e-05
-5.3823e-05
0.00245932
0.00568878
0.00295412
0.00609806
0.00228949
-0.00279992
1.01108e-05
-1.30395e-05
4.59598e-05
-4.33642e-05
0.00148999
0.00457704
0.00343788
0.00527154
0.00193975
-0.00254451
1.07802e-05
-8.09621e-06
1.76611e-05
8.50112e-06
0.000198024
0.00227428
0.00380087
0.00435511
0.00135796
-0.00182132
5.52562e-06
-3.50008e-06
1.19162e-05
3.77647e-06
0.000258936
0.0013569
0.000772075
0.000201277
0.00124167
-0.000417629
-5.61109e-07
2.09528e-07
-1.12762e-06
5.57082e-07
-2.28868e-05
-0.00011925
-9.4661e-05
-5.47662e-05
-0.000130317
4.81998e-05
9.405e-08
1.06501e-06
1.92947e-06
5.02359e-06
0.000241504
0.00045537
0.000161836
0.000360328
0.000237741
-6.88399e-05
1.79977e-06
-1.21992e-05
-2.82282e-05
2.20544e-05
-0.00341505
-0.00571346
-0.000133323
-0.00316397
-0.00207456
0.000355694
9.14324e-06
-1.224e-05
-7.08231e-05
9.83744e-05
-0.00616931
-0.0119127
-0.00696417
-0.0152192
-0.00228055
0.00423319
1.23962e-05
-2.05792e-06
-7.52784e-05
8.5841e-05
-0.00591907
-0.0114435
-0.00627408
-0.0155378
-0.00285434
0.00593224
5.784e-06
8.48411e-06
-8.00027e-05
8.04684e-05
-0.00486432
-0.00979615
-0.00475294
-0.0126952
-0.00306764
0.00551161
-6.69037e-06
1.87946e-05
-8.58721e-05
8.39391e-05
-0.00341724
-0.00804437
-0.00453259
-0.0104721
-0.00278346
0.00490469
-1.92272e-05
2.4275e-05
-7.46981e-05
5.90719e-05
-0.00155818
-0.00588335
-0.00559624
-0.0088554
-0.0023106
0.00436708
-1.814e-05
1.37959e-05
-1.6532e-05
-3.419e-05
0.000641879
-0.00174762
-0.00628568
-0.00734076
-0.00139806
0.00299235
-8.83129e-06
6.67919e-06
-1.33429e-05
-1.30367e-05
0.000177064
-0.000877117
-0.00100377
-0.000587508
-0.0016939
0.000672497
9.09537e-07
-3.45324e-07
1.34237e-06
-1.60555e-06
-7.75836e-06
8.00765e-05
0.000113561
0.000130346
0.000203961
-8.60704e-05
2.25548e-07
-2.19326e-06
-2.29027e-06
-7.26751e-06
-0.000384755
-0.000662224
-0.000171785
-0.000668463
-0.000416594
0.000139831
-9.84155e-06
2.35732e-05
4.71104e-05
-8.70647e-05
0.0058023
0.00913914
-0.00086324
0.00564356
0.00362306
-0.00078891
-2.9046e-05
1.14027e-05
0.000124656
-0.000255943
0.00973955
0.0186202
0.0109367
0.0248292
0.0015521
-0.00878387
-3.25014e-05
-1.27572e-05
0.000136019
-0.000243411
0.00893573
0.0174157
0.010012
0.0249978
0.00183472
-0.0125777
-1.31322e-05
-3.20644e-05
0.000144632
-0.000226669
0.00686215
0.0142958
0.00758339
0.0202829
0.002549
-0.0117766
1.82663e-05
-4.66346e-05
0.000149214
-0.000204365
0.00415193
0.011035
0.00749778
0.0164167
0.00246467
-0.0104076
4.65471e-05
-4.85899e-05
0.000116952
-0.000112786
0.000906791
0.0072876
0.00976922
0.0134201
0.00194714
-0.00909574
3.79095e-05
-2.53667e-05
7.17321e-06
8.12412e-05
-0.00242431
0.000506694
0.011016
0.0114219
0.000530947
-0.00598717
1.81998e-05
-1.546e-05
1.20037e-05
2.96076e-05
-0.00125583
-0.000384679
0.00185971
0.00140441
0.00240476
-0.0013572
-1.58932e-06
7.37434e-07
-1.36331e-06
4.43664e-06
7.99995e-05
2.96048e-05
-0.000141366
-0.000276013
-0.000330448
0.000167152
-1.25551e-06
4.08146e-06
2.81133e-06
1.14907e-05
0.000598107
0.000954075
0.000143807
0.0011132
0.000644393
-0.000250471
2.65775e-05
-3.74106e-05
-8.29247e-05
0.000194317
-0.00962705
-0.0153123
0.00207027
-0.0076866
-0.00505444
0.00120538
5.70116e-05
-1.5614e-06
-0.000223438
0.000463333
-0.0146198
-0.0298636
-0.0185779
-0.0358526
6.41062e-05
0.0126609
5.43686e-05
4.5189e-05
-0.000249514
0.000435995
-0.0125845
-0.0270178
-0.0175006
-0.0363732
0.00039282
0.0187772
1.24975e-05
7.49387e-05
-0.000261937
0.000392743
-0.00874486
-0.021152
-0.0137176
-0.0291383
-0.000963688
0.0177343
-4.7354e-05
8.8892e-05
-0.000254422
0.000314748
-0.00403377
-0.0152884
-0.0140822
-0.0229013
-0.00130875
0.0155596
-9.45193e-05
7.7393e-05
-0.00017264
0.000102865
0.00116802
-0.00898919
-0.0184212
-0.0179374
-0.000799119
0.0133309
-6.55819e-05
3.94104e-05
1.98918e-05
-0.000217648
0.00560556
0.00170375
-0.0197068
-0.0157954
0.00149452
0.00826541
-3.13813e-05
2.76997e-05
7.80528e-08
-0.000104151
0.00348681
0.00303225
-0.00423082
-0.00216775
-0.00220251
0.00191547
2.4913e-06
-1.78681e-06
1.40661e-06
-8.28512e-06
-0.000219816
-0.000251148
0.00021601
0.000511171
0.000455088
-0.000282048
4.62836e-06
-6.18424e-06
-2.88115e-06
-7.28948e-06
-0.000897021
-0.00139691
-0.000121283
-0.00176791
-0.00108309
0.00053372
-8.2498e-05
4.1138e-05
0.000163642
-0.000549413
0.0154185
0.0275219
-0.0011611
0.00982977
0.00846819
-0.00303091
-0.000123733
-6.1178e-05
0.000400574
-0.000988665
0.0204445
0.0493674
0.0349612
0.0459617
-0.00557392
-0.0251092
-8.68346e-05
-0.000144778
0.000444503
-0.00091453
0.0160643
0.04303
0.0336598
0.0458759
-0.00802071
-0.0379585
2.79149e-05
-0.000179071
0.000450667
-0.000759713
0.00949213
0.0322309
0.0276584
0.0360679
-0.00525843
-0.0363807
0.000171031
-0.000170603
0.000401605
-0.000485535
0.00202282
0.0219904
0.028391
0.0271344
-0.00368836
-0.0319373
0.000263968
-0.00011254
0.000219533
2.14052e-05
-0.00548669
0.0114677
0.0348543
0.0201558
-0.00406331
-0.0269787
0.000160292
-4.55387e-05
-8.55235e-05
0.000545194
-0.0104025
-0.00476501
0.0342964
0.020115
-0.00832023
-0.0157479
8.21446e-05
-4.14782e-05
-4.44261e-05
0.000328895
-0.00746831
-0.00794228
0.00963392
0.00379159
0.00076135
-0.00389578
-4.51241e-06
3.57165e-06
-1.07814e-06
1.01205e-05
0.00044634
0.00060494
-0.000390591
-0.000904105
-0.000625249
0.00055902
-1.0393e-05
8.24279e-06
4.68103e-06
-9.77823e-06
0.0012939
0.0022379
0.000277271
0.00241282
0.0016171
-0.000831686
0.000142095
-2.26157e-05
-0.000324286
0.00128178
-0.0235525
-0.0520034
-0.00701282
-0.00519541
-0.0124102
0.00439169
0.000126348
0.000135999
-0.000673324
0.00175997
-0.0260917
-0.0831059
-0.0686778
-0.048473
0.00549409
0.0277371
2.22141e-05
0.000248006
-0.00073551
0.00148022
-0.0178816
-0.0701518
-0.0670417
-0.0492625
0.00956658
0.0437076
-0.000170969
0.000270696
-0.000715232
0.00104495
-0.007536
-0.0505245
-0.0569273
-0.0374307
0.0065982
0.0425297
-0.000378164
0.000213322
-0.000572192
0.000377058
0.00323488
-0.0321938
-0.0564383
-0.0266059
0.00508579
0.0372225
-0.000472633
9.29316e-05
-0.000217387
-0.000596408
0.0129413
-0.0132397
-0.0624251
-0.0198309
0.00733086
0.0306939
-0.000255125
3.05288e-05
0.000212047
-0.00126696
0.0169398
0.0113034
-0.0545365
-0.0252177
0.0154025
0.0159707
-0.000141987
3.45926e-05
0.000159996
-0.000925203
0.0138179
0.0178323
-0.0185257
-0.00589458
0.00349577
0.00441151
7.14467e-06
-6.57768e-06
2.34901e-07
2.85344e-08
-0.000748424
-0.00110894
0.000837917
0.0014871
0.000657913
-0.000786516
2.7656e-05
-6.23073e-06
-1.02395e-05
8.13457e-05
-0.0017328
-0.00377222
-0.00116423
-0.00269525
-0.00311235
0.00208806
-0.000324352
-7.73366e-05
0.000638079
-0.00286465
0.032594
0.0960576
0.0321333
-0.00879967
0.0257794
-0.0145507
-1.78393e-05
-0.000318016
0.00104499
-0.00287504
0.0276435
0.131243
0.126674
0.036902
-0.00807566
-0.0553068
0.000373729
-0.000449303
0.00110084
-0.00208122
0.0143013
0.107038
0.123556
0.0384403
-0.0170949
-0.0895693
0.000865536
-0.000409467
0.00100562
-0.00102891
-0.00012313
0.0734242
0.105989
0.0277095
-0.0144242
-0.0906316
0.00128947
-0.000221136
0.000686923
0.000357299
-0.0135623
0.0412553
0.0989989
0.0192204
-0.0142752
-0.0807673
0.00133511
2.62853e-05
8.89551e-05
0.00196244
-0.0239678
0.00718153
0.0963898
0.0190825
-0.0228027
-0.065049
0.000638646
5.64852e-05
-0.000430082
0.00254765
-0.0244885
-0.0266793
0.0738969
0.035732
-0.0401278
-0.0258492
0.000378633
2.65732e-05
-0.000404579
0.00218856
-0.0221015
-0.0370066
0.0285651
0.0130926
-0.0179177
-0.00880204
-1.48148e-05
9.05042e-06
3.15723e-06
-4.54452e-05
0.0010361
0.001705
-0.00146551
-0.00241843
-0.000457813
0.00171532
-1.87764e-05
-3.44633e-06
2.14642e-05
-0.000167313
0.00108776
0.00428711
0.00274935
0.000739978
0.00304112
-0.000318307
0.000145069
0.000124864
-0.0006931
0.00371369
-0.0200604
-0.099982
-0.0562376
0.0289834
-0.0248231
0.0106776
-0.000335719
0.000177268
-0.000802654
0.00230426
-0.00636096
-0.104569
-0.126751
-0.00199386
-0.00934114
0.0183338
-0.000708383
0.000213747
-0.000810988
0.000934351
0.00416352
-0.0795285
-0.121774
-0.00646642
-0.00496053
0.0299719
-0.00103541
0.000131293
-0.000674455
-0.000550071
0.0132812
-0.0476423
-0.10324
-0.00480993
-0.00246714
0.031295
-0.00119664
-4.53881e-05
-0.000336448
-0.00207567
0.0197623
-0.0156961
-0.0876983
-0.00750986
0.00412719
0.0271222
-0.00101218
-0.00017582
0.000147303
-0.00332814
0.0225534
0.0176814
-0.0708438
-0.0193367
0.0182521
0.0182986
-0.000417309
-6.82111e-05
0.000401983
-0.00307317
0.0174896
0.0372266
-0.0452041
-0.0359128
0.0321821
5.60842e-05
-0.000271166
-7.4758e-05
0.000489591
-0.00302987
0.0169241
0.0440867
-0.0187185
-0.0185112
0.020891
0.00223028
9.31535e-06
-5.14705e-06
-9.61318e-06
9.92343e-05
-0.00054645
-0.0013245
0.00156032
0.00242395
-0.000108644
-0.000247695
3.03665e-07
-1.63428e-05
2.96357e-05
-5.76174e-05
-0.000556857
-0.00279826
-0.00314203
0.000365338
-0.00355933
-0.000315752
-2.14736e-05
0.000371319
-0.000677398
0.000931987
0.0112541
0.0571491
0.0699483
-0.0137281
0.0141389
-0.000687207
9.16495e-05
7.26067e-05
-0.00015775
0.000251898
0.00230196
0.0361944
0.0990304
0.0495312
0.0106086
-0.00506703
0.000178086
-0.000213215
0.00033743
-0.000616215
-0.00434413
0.0196141
0.0881559
0.0537974
0.0154821
-0.0100891
0.000275046
-0.000442189
0.000694028
-0.00124489
-0.00989055
0.00186055
0.0697817
0.0476572
0.0137979
-0.0112286
0.000349313
-0.00060248
0.000895529
-0.00152932
-0.0132465
-0.0155106
0.0516862
0.0481062
0.00717598
-0.0111435
0.000319311
-0.000655574
0.000952626
-0.00141258
-0.0142594
-0.0311498
0.0313596
0.0567206
-0.00264905
-0.0103947
0.000109956
-0.000462791
0.000745939
-0.000891567
-0.0113348
-0.033652
0.0100734
0.0614577
-0.013125
-0.0049323
6.41585e-05
-0.000392892
0.00064603
-0.000728691
-0.0101691
-0.0339734
-0.00445195
0.0337125
-0.00891575
-0.00352879
1.98123e-06
1.24988e-05
-2.60106e-05
5.10977e-05
0.00018701
0.000971297
0.000150125
-0.00259805
-0.000879662
-0.000149229
-3.20092e-06
-1.19694e-05
3.51995e-05
-0.000108803
0.000644189
0.00403451
0.00569286
-0.00040271
0.00342878
0.00098915
6.70413e-05
0.000318696
-0.000560702
0.00164419
-0.0156868
-0.0887597
-0.100847
0.016279
-0.0126092
-0.00308943
0.000139035
0.000526938
-0.00101767
0.00205002
0.000393047
-0.0676508
-0.13225
-0.0430976
-0.0159787
0.00132911
0.000135595
0.000521737
-0.00109048
0.00204562
0.0107035
-0.0419262
-0.11758
-0.0435414
-0.016431
0.00369697
8.10953e-05
0.000392114
-0.000953074
0.00155997
0.0184612
-0.0133104
-0.0919082
-0.038346
-0.0136626
0.00380081
-1.05796e-06
0.000156372
-0.000598493
0.000579709
0.0222029
0.0121954
-0.0655786
-0.0406044
-0.00918933
0.00392697
-7.95278e-05
-0.000109314
-0.000127722
-0.000581159
0.0221958
0.0350608
-0.0367756
-0.0517288
-0.00154648
0.00460069
-8.07674e-05
-0.000202322
0.000191807
-0.00101804
0.0161764
0.041032
-0.0123054
-0.0602283
0.00945046
0.00467515
-3.8645e-05
-0.000179017
0.00025792
-0.00117147
0.0157061
0.0483401
0.00664131
-0.0360961
0.00814656
0.0018409
1.01281e-07
3.34995e-06
-2.00792e-05
6.2585e-05
-0.000156291
-0.000980198
0.000309848
0.00351574
0.000556418
9.4017e-05
-5.44821e-06
-1.49414e-05
1.22315e-05
1.74328e-05
0.000106218
-0.00260084
-0.00717593
0.000475298
-0.00340697
-0.00128211
5.12875e-05
0.000334365
-0.000529788
0.00144155
0.00607842
0.0577865
0.1222
0.00157228
0.0114703
0.00493773
6.65439e-05
0.0003424
-2.18541e-05
-0.000377828
-0.00933093
0.00803644
0.108887
0.0868439
0.0339133
0.0150716
4.33488e-05
0.000188772
0.000403548
-0.00202065
-0.0162256
-0.0117877
0.0886741
0.0890449
0.0386419
0.0150073
2.25809e-05
2.46841e-05
0.000661434
-0.00297866
-0.0199548
-0.0291536
0.061455
0.0800307
0.0321187
0.0124549
5.20139e-06
-0.000149275
0.000785951
-0.00316845
-0.0193494
-0.0422554
0.0313475
0.0788646
0.0233876
0.00956804
-1.97125e-05
-0.000341839
0.000858188
-0.00279849
-0.0162607
-0.050985
-0.000413949
0.0854384
0.013558
0.00643873
-5.08531e-05
-0.000390559
0.000749574
-0.0019154
-0.0110199
-0.0418768
-0.0176425
0.0819982
0.00381147
0.00328237
-3.11838e-05
-0.000268336
0.000569402
-0.0014043
-0.0100308
-0.0441338
-0.0288515
0.0490725
-0.00293514
0.000323285
2.0822e-06
9.47324e-06
-8.66491e-06
-5.61622e-06
-0.000453693
0.000110572
0.00102395
-0.00449706
-0.00113439
-0.000956752
-1.27821e-06
-2.05475e-05
4.93543e-05
-0.000220083
-0.000510153
0.0015382
0.00849235
0.00120367
0.00358115
-0.000256036
1.08258e-05
0.000229003
-0.000549241
0.000657589
-0.00699381
-0.055979
-0.131658
-0.0237589
-0.0118
-5.67167e-05
6.01098e-05
0.00047504
-0.00108244
0.0034985
0.00996972
-0.0140271
-0.0960155
-0.0904764
-0.0300462
-0.0072335
8.07791e-05
0.000460762
-0.00102943
0.00465443
0.0183094
0.00709154
-0.0728652
-0.0852281
-0.0296589
-0.0106563
7.70752e-05
0.000340669
-0.000775908
0.00460747
0.0227681
0.0261005
-0.0441799
-0.0760221
-0.0246371
-0.00963447
5.83559e-05
0.000164161
-0.000402206
0.00344368
0.0220064
0.0362776
-0.0153726
-0.0724406
-0.019676
-0.00793216
3.07641e-05
-3.48011e-05
-3.84465e-05
0.00182529
0.0188837
0.0414995
0.0114263
-0.0739224
-0.0147399
-0.00585771
1.9214e-06
-0.000177302
0.000174163
0.000602597
0.0135051
0.0346698
0.0182348
-0.0685232
-0.00926196
-0.00237671
7.80831e-06
-8.79254e-05
0.000191823
0.000216716
0.0123821
0.0447138
0.0358825
-0.0482772
-0.00267334
0.000895364
-6.47883e-07
8.27693e-06
-3.40229e-05
0.000148684
0.000821153
0.000966015
-0.000866638
0.00522513
0.0020758
-0.000655565
-1.40936e-06
-1.10989e-05
1.49117e-07
0.000290562
0.00154717
0.00149478
-0.00759172
-0.00178192
-0.0020188
-0.00379052
7.94047e-06
7.05236e-05
-0.000105057
0.000738197
-0.000804606
0.0285019
0.127865
0.0505982
0.0171836
0.0139997
1.24209e-05
0.000171215
6.39669e-05
-0.00301729
-0.0178421
-0.0242169
0.0572168
0.118549
0.0513627
0.0212618
8.88056e-06
0.000187648
0.000104714
-0.00505016
-0.0233007
-0.0386785
0.0343676
0.114311
0.0486541
0.0177321
4.73085e-06
0.000170929
9.1223e-05
-0.00562547
-0.0241559
-0.0476338
0.00902769
0.101587
0.0411879
0.0145443
4.19709e-07
0.00012103
0.000121415
-0.00488879
-0.0197661
-0.0469025
-0.0139368
0.0931194
0.0357088
0.0119909
-7.66838e-06
2.03476e-05
0.000269166
-0.00368715
-0.014609
-0.0439806
-0.0326576
0.0888453
0.0325886
0.0100922
-1.47602e-05
-8.70877e-05
0.000386056
-0.00244985
-0.0101189
-0.032664
-0.0295863
0.0754599
0.0292167
0.00900468
-7.94596e-06
-2.69477e-05
0.00019251
-0.00153481
-0.00846769
-0.0393942
-0.0486318
0.0512729
0.0119905
0.00567919
3.19813e-07
1.50393e-07
1.48643e-05
-0.000217867
-0.00163301
-0.00299989
0.00101486
-0.00561373
-0.00122076
-0.00161605
8.39321e-07
1.63693e-06
2.06966e-05
-0.000557561
-0.00233689
-0.00479166
0.00399494
-0.0029843
0.0028646
0.00298221
-3.21311e-06
2.93638e-06
-0.000536389
0.00109086
0.00186014
-0.0130498
-0.104833
-0.0894348
-0.0335891
-0.00485192
3.97092e-06
8.52114e-05
-0.000698694
0.00637613
0.0176254
0.0225216
-0.0202441
-0.117575
-0.0707293
-0.0392401
1.04862e-05
0.000101769
-0.000343082
0.00801939
0.0228387
0.0332709
-0.000344016
-0.108598
-0.0587798
-0.0380411
1.02313e-05
6.36964e-05
1.78908e-05
0.00757632
0.0234376
0.0395624
0.018799
-0.0960838
-0.0450529
-0.0314475
7.92304e-06
2.13801e-05
0.000242153
0.00552754
0.0190418
0.034246
0.0292154
-0.0842342
-0.0305549
-0.0257379
7.12125e-06
-9.22758e-06
0.000320616
0.00321913
0.0148614
0.0296407
0.0336572
-0.0734103
-0.014445
-0.0209202
5.67054e-06
-2.53906e-05
0.000295095
0.00163307
0.0117475
0.0242233
0.020434
-0.0573667
-0.00382115
-0.0154654
3.39993e-06
-6.29747e-06
0.000243038
0.000794731
0.0089771
0.0350287
0.0498106
-0.0494639
-0.00469446
-0.000452304
-2.48293e-07
-8.98278e-07
-2.73214e-05
0.000409037
0.00225702
0.00541225
0.000473809
0.00225191
0.00193716
0.00382797
-3.47669e-07
-1.01713e-07
4.9665e-05
0.000752229
0.00340263
0.00899366
0.00304758
0.0204381
-0.0267109
0.0280673
2.10204e-06
1.77246e-05
0.0001651
-0.00112264
-0.00717472
-0.00637279
0.0662869
0.119083
0.053569
-0.034882
-4.82812e-07
8.20384e-06
-0.000410955
-0.00699124
-0.022896
-0.0352047
-0.016895
0.105182
0.116411
-0.038854
7.72553e-07
5.04098e-05
-0.000889638
-0.00870873
-0.0258018
-0.0396696
-0.0286429
0.101785
0.113552
-0.0231124
3.94086e-06
9.04054e-05
-0.00106627
-0.00814916
-0.0237659
-0.0390916
-0.0379779
0.0910776
0.1148
-0.0176502
5.30203e-06
9.43176e-05
-0.00087493
-0.00601036
-0.0173628
-0.0288573
-0.0339258
0.0794793
0.127228
-0.0150236
2.82888e-06
6.24128e-05
-0.000462043
-0.00392791
-0.0124631
-0.024869
-0.0272834
0.0682059
0.152637
-0.0139355
-1.2823e-06
1.21388e-05
-6.8848e-05
-0.00268342
-0.0101029
-0.0232645
-0.0132265
0.0517213
0.162398
-0.0142943
-1.25989e-06
-9.28296e-07
-0.000150761
-0.00120553
-0.00649571
-0.0299422
-0.0501263
0.0459411
0.0891154
-0.000215585
1.98321e-07
1.2469e-06
-1.24039e-06
-0.000569471
-0.00298395
-0.00831424
-0.0038633
0.00556068
-0.00251813
0.0282943
4.0652e-07
2.2516e-06
-9.40553e-05
-0.00102766
-0.00401528
-0.0122091
-0.0142453
-0.027124
0.0237184
-0.121084
-3.99922e-06
-5.17607e-05
-0.000310462
0.00308658
0.0088881
0.0147479
-0.0223596
-0.144558
-0.101505
0.0123673
-1.39121e-06
-1.37696e-05
0.000578132
0.0102329
0.0224282
0.0241828
0.032191
-0.0632782
-0.100032
0.0558328
-2.79353e-06
-1.56546e-05
0.00130971
0.011313
0.0242526
0.025169
0.0355125
-0.0680183
-0.0278037
0.0460148
-7.64178e-06
-3.88963e-05
0.0015154
0.00967626
0.0218038
0.0237823
0.0349307
-0.0612713
0.031286
0.0365561
-9.92337e-06
-3.94115e-05
0.00121057
0.00646843
0.0160162
0.0152213
0.0177325
-0.0497389
0.100383
0.0327303
-8.16041e-06
-2.51151e-05
0.000769232
0.00365517
0.0124738
0.0163916
0.00545869
-0.0339985
0.184615
0.0295051
-2.44483e-06
3.79323e-06
0.000465314
0.00224504
0.0115575
0.0221464
-0.00318998
-0.0168112
0.238716
0.00779695
6.30717e-07
1.96163e-05
0.000295192
0.000631993
0.00616293
0.0271535
0.0444212
-0.0335274
0.169941
-0.0638995
-1.65993e-07
-1.53673e-06
3.58169e-05
0.000756371
0.00336368
0.0107098
0.0102191
-0.0194392
0.0575535
-0.12801
-3.86675e-07
4.5828e-06
0.000186011
0.00120313
0.0043502
0.0136335
0.0259964
-0.0174016
0.0812246
0.165019
8.42248e-06
5.92651e-05
-8.13339e-05
-0.00439593
-0.0129498
-0.0194349
-0.0122298
0.130815
0.210333
0.0137214
2.10484e-06
-6.58181e-05
-0.00200642
-0.0114739
-0.025787
-0.0207306
-0.0226209
-0.012877
0.311595
-0.0109774
-4.64372e-06
-0.000125176
-0.00285338
-0.0119007
-0.0259541
-0.0195499
-0.0179485
0.0155138
0.370234
-0.0217336
-8.4298e-06
-0.000137417
-0.00271121
-0.00972137
-0.0220976
-0.017337
-0.00957214
0.0129113
0.413255
-0.038834
-9.88321e-06
-0.000125954
-0.00188134
-0.00631614
-0.0157503
-0.0117291
0.0132251
0.00348701
0.48377
-0.0641517
-8.4972e-06
-9.24485e-05
-0.00100149
-0.00372808
-0.0119392
-0.017814
0.0192185
-0.0123193
0.598137
-0.0866897
-6.26762e-06
-5.91732e-05
-0.000458158
-0.00278092
-0.0109904
-0.0267412
0.0137278
-0.0262471
0.691398
-0.060813
-4.72018e-06
-4.29478e-05
-0.000241871
-0.000505235
-0.00439322
-0.024894
-0.0412127
-0.0185888
0.509169
0.120221
1.80917e-07
1.20888e-06
-9.45044e-05
-0.00087088
-0.00342947
-0.0119633
-0.0197186
-0.019613
0.0644363
0.407851
-8.85432e-08
4.00828e-06
-0.000291104
-0.00129741
-0.00383835
-0.011196
-0.0293059
-0.0532186
0.0324498
0.572786
-3.28876e-06
-5.9323e-05
0.000684152
0.00699425
0.0155071
0.0171157
0.015846
0.0290587
0.171259
0.809319
-4.79375e-06
0.000134004
0.00334534
0.0140637
0.0250703
0.00791253
-0.0215377
0.12092
0.29726
0.839574
-2.0706e-06
0.000304437
0.0039934
0.0134801
0.0242067
0.00759122
-0.0274234
0.0782264
0.361784
0.873237
1.45351e-06
0.000368202
0.00335136
0.0103797
0.0203873
0.00903242
-0.0384535
0.0416392
0.460119
0.940624
3.91989e-06
0.000321932
0.00205532
0.00643018
0.0150481
0.00971551
-0.0559096
0.00387876
0.63533
1.0168
4.1234e-06
0.000224131
0.000993528
0.00355885
0.0121508
0.0204496
-0.0442464
-0.0174831
0.896752
1.085
2.80236e-06
0.000123505
0.00058441
0.00249617
0.0117063
0.0319787
-0.0221029
-0.0183899
1.1347
1.15056
9.42788e-07
5.55693e-05
0.000105497
-9.14138e-05
0.00334156
0.0236634
0.0381019
0.0483529
0.978719
1.25719
1.4716e-07
-4.90046e-06
0.000187657
0.000881201
0.00302316
0.0110333
0.024986
-0.0340755
0.293701
1.28975
7.558e-08
-6.92447e-08
0.000293092
0.00099268
0.0028874
0.00846695
0.0332694
-0.024018
0.0661644
1.19676
1.35908e-06
2.09615e-05
-0.00111922
-0.00861988
-0.0202391
-0.018008
0.0200065
-0.310508
0.555282
1.27038
2.39816e-07
-0.00027507
-0.00362389
-0.014305
-0.0288673
-0.00574117
0.061395
-0.222932
0.805576
1.17428
-4.44464e-06
-0.000484269
-0.00383859
-0.0129493
-0.0274018
-0.00826471
0.0684174
-0.232213
0.970912
1.13679
-7.50344e-06
-0.000510029
-0.00290621
-0.00950716
-0.0229939
-0.0128067
0.0750381
-0.197805
1.1622
1.12786
-7.62607e-06
-0.000390687
-0.00159592
-0.00566812
-0.0172888
-0.0164869
0.076536
-0.154094
1.41621
1.10416
-5.63951e-06
-0.000235759
-0.000621529
-0.00294728
-0.0134625
-0.0283986
0.0429194
-0.107632
1.71104
1.03329
-2.92393e-06
-0.000116994
-0.000286421
-0.00191697
-0.0115026
-0.0392743
0.0102564
-0.0263676
1.90501
0.959878
-4.19066e-07
-4.41057e-05
0.000129782
0.000767809
-0.00165982
-0.0253226
-0.0538205
-0.0631451
1.76244
1.03252
-1.33679e-07
2.83409e-06
-0.000170439
-0.000609697
-0.00257914
-0.0109233
-0.0359671
-0.0845751
0.760483
1.51565
1.49894e-08
-3.58753e-06
-0.000242822
-0.000564726
-0.00046672
0.00130868
-0.0080856
-0.0898144
0.425847
1.26211
-1.96761e-06
6.05454e-06
0.00181678
0.0107438
0.02276
0.0125778
-0.0448169
-0.190267
0.886196
1.31722
3.17936e-06
0.000450431
0.00456412
0.0155914
0.0279255
-0.005993
-0.0998247
-0.267453
1.1355
1.24496
1.1378e-05
0.00069071
0.00444194
0.0135003
0.0262921
0.002288
-0.0961476
-0.310424
1.36466
1.14852
1.52055e-05
0.000674089
0.00316891
0.00956844
0.0223151
0.0126294
-0.0893888
-0.299756
1.65415
0.994422
1.39914e-05
0.000487702
0.00162579
0.00552548
0.0173836
0.0217708
-0.0721585
-0.212311
1.92465
0.821514
1.01335e-05
0.000281946
0.000556139
0.00255759
0.0132704
0.0345751
-0.0277884
-0.06362
2.11022
0.686981
5.60013e-06
0.000143737
0.000223201
0.00109003
0.00996908
0.0439513
0.00598583
0.124655
2.12072
0.652721
1.63782e-06
5.33001e-05
-0.000248701
-0.00139281
-0.000636736
0.0212907
0.0723734
0.163979
1.86877
0.831648
1.02389e-07
-6.18656e-07
0.000136795
0.000425949
0.00167783
0.00800812
0.0252678
0.0711257
1.00018
1.36403
-9.00988e-08
6.95143e-06
0.000172765
8.06099e-05
-0.00131011
-0.00467493
-0.00050273
-0.0087135
0.528672
1.45096
1.01267e-06
-0.000113229
-0.00266052
-0.0119701
-0.0252127
-0.00553726
0.06887
0.0515437
1.18753
1.18766
-1.26143e-05
-0.000657042
-0.00476069
-0.0153988
-0.0313186
0.00169292
0.108392
0.263935
1.25088
1.09156
-2.26206e-05
-0.000817483
-0.00400306
-0.012699
-0.0304917
-0.0150605
0.0848579
0.237832
1.31598
1.06641
-2.39443e-05
-0.000687685
-0.00244317
-0.00852501
-0.0263029
-0.0295483
0.061009
0.206575
1.48029
0.998221
-1.87268e-05
-0.000423342
-0.000955824
-0.00450326
-0.0203315
-0.0385284
0.0375697
0.225875
1.72201
0.847589
-1.17001e-05
-0.000191854
-3.91069e-05
-0.00139278
-0.0137436
-0.0459963
0.00247008
0.318728
1.92608
0.661992
-5.95696e-06
-8.319e-05
0.000184252
0.000351829
-0.00723298
-0.0478726
-0.0275986
0.40563
2.06195
0.507213
-2.43217e-06
-1.15776e-05
0.000526408
0.00214635
0.00256743
-0.0202041
-0.0981628
0.295168
2.05904
0.518887
-6.78423e-08
-2.08451e-06
-9.58229e-05
-0.000196946
-0.00113342
-0.0081226
-0.0320753
-0.0100054
1.28232
1.22363
1.07132e-07
-7.28357e-06
-0.000105126
0.000441257
0.00303975
0.00483309
-0.0182254
0.12354
0.501671
1.57227
1.13581e-06
0.000223768
0.0032566
0.0129777
0.0262925
0.000946894
-0.0698423
-0.0135127
1.27249
1.2206
2.17371e-05
0.000818887
0.00501393
0.0156354
0.032275
0.00241046
-0.094839
-0.033948
1.47361
1.12022
3.18336e-05
0.000908638
0.00395971
0.012352
0.0315416
0.025324
-0.0524398
0.044939
1.61368
1.02548
3.04612e-05
0.00070874
0.0022772
0.00777761
0.0264931
0.0397427
-0.0333694
0.0985612
1.83559
0.857397
2.22042e-05
0.000410244
0.000770939
0.00346916
0.0191554
0.0455919
-0.0220759
0.217263
2.05349
0.630842
1.31604e-05
0.000170994
-0.000178877
8.53278e-05
0.0104072
0.0465075
0.0115809
0.436984
2.11422
0.455641
6.77516e-06
6.80179e-05
-0.000443695
-0.00184704
0.00217851
0.0425113
0.0703236
0.690575
1.95513
0.41774
2.69903e-06
-7.97308e-06
-0.000562774
-0.00246016
-0.00497616
0.0116598
0.134522
0.755051
1.75388
0.522624
6.73829e-08
3.60596e-06
4.46652e-05
-2.95789e-05
6.04299e-05
0.00562915
0.0472846
0.264095
1.47087
0.952557
-2.21661e-07
1.02603e-05
-3.97533e-05
-0.00103396
-0.00522687
-0.00996638
0.00383127
-0.0108206
1.03635
1.28104
-6.19412e-06
-0.00038534
-0.00379737
-0.0133902
-0.0264469
0.00578212
0.128252
0.520143
1.53193
0.890762
-3.45611e-05
-0.000977437
-0.00484182
-0.0146276
-0.0365145
-0.022294
0.105805
0.662722
1.55744
0.803173
-4.17918e-05
-0.000929914
-0.00317453
-0.0105812
-0.0355778
-0.0483703
0.0657709
0.695961
1.56713
0.766524
-3.50453e-05
-0.000621878
-0.0012544
-0.0056119
-0.0285024
-0.0586499
0.0601736
0.799771
1.58486
0.723134
-2.23671e-05
-0.000278484
0.000210347
-0.00117744
-0.0184018
-0.0578438
0.0500435
0.832164
1.67804
0.63683
-1.0958e-05
-3.91959e-05
0.00096729
0.00199108
-0.00708244
-0.0496526
0.0070234
0.853075
1.79009