/*--------------------------------*- C++ -*----------------------------------*\
| =========                 |                                                 |
| \\      /  F ield         | OpenFOAM: The Open Source CFD Toolbox           |
|  \\    /   O peration     | Version:  1.7.x                                 |
|   \\  /    A nd           | Web:      www.OpenFOAM.com                      |
|    \\/     M anipulation  |                                                 |
\*---------------------------------------------------------------------------*/
FoamFile
{
    version     2.0;
    format      ascii;
    class       volScalarField;
    location    "0.5";
    object      C;
}
// * * * * * * * * * * * * * * * * * * * * * * * * * * * * * * * * * * * * * //

dimensions      [0 -3 0 0 1 0 0];

internalField   nonuniform List<scalar> 
8000
(
3.25108e-05
-1.39746e-05
0.000265584
0.000214938
0.0211348
0.0538682
0.0290667
0.0123614
0.0160314
-0.00372591
-0.000263625
0.000121152
-0.00298276
0.00101842
-0.250941
-0.606365
-0.26499
-0.126606
-0.148628
0.0246692
-0.000503783
0.00031481
-0.00654559
0.00658416
-0.501704
-1.25119
-0.778139
-0.796011
-0.38256
0.208031
-0.000333165
0.000357261
-0.0064826
0.00513103
-0.51815
-1.24222
-0.691745
-0.814187
-0.460305
0.261507
-0.000368855
0.000568923
-0.00640048
0.00393132
-0.486051
-1.1613
-0.58273
-0.670745
-0.439565
0.239714
-0.000646522
0.00106144
-0.00688821
0.00435612
-0.441672
-1.11226
-0.564099
-0.566311
-0.401032
0.223194
-0.00107428
0.00164994
-0.00728673
0.00492624
-0.373473
-1.06123
-0.62258
-0.500194
-0.363598
0.216756
-0.00130792
0.00153982
-0.005699
0.00169802
-0.24996
-0.876739
-0.676014
-0.394367
-0.293488
0.174494
-0.000717595
0.000767858
-0.00348824
-1.69593e-06
-0.170197
-0.557963
-0.280617
0.0706748
-0.179447
0.0461883
7.29085e-05
-7.10411e-05
0.000315406
1.08573e-05
0.0139823
0.0469678
0.0277238
-0.00325957
0.0177119
-0.00525013
-7.51669e-05
-1.16273e-05
-0.000608318
-0.000519379
-0.0515879
-0.124745
-0.0643362
-0.0410405
-0.0416518
0.00992441
0.000553995
0.000219928
0.00678317
-0.00392604
0.605827
1.3631
0.511204
0.396955
0.38625
-0.062389
0.0008364
0.000185201
0.0150369
-0.0191263
1.20947
2.84983
1.77286
2.27434
0.901474
-0.599929
0.000326398
-0.000140594
0.0149461
-0.0160358
1.23989
2.82256
1.57132
2.32258
1.10183
-0.774885
0.00054569
-0.000950837
0.014933
-0.0133669
1.14106
2.60569
1.29102
1.91506
1.064
-0.7117
0.00146468
-0.00238818
0.0161816
-0.0141962
1
2.43899
1.23256
1.61825
0.961032
-0.654538
0.00274043
-0.00387818
0.0166866
-0.0141092
0.789067
2.23547
1.36434
1.42958
0.850567
-0.621678
0.00328166
-0.00323438
0.0113158
-0.00301844
0.442557
1.67646
1.47396
1.15046
0.663103
-0.481487
0.00177235
-0.00148364
0.00691728
-0.000100114
0.31054
1.04876
0.510373
-0.0945162
0.440114
-0.119708
-0.000184455
0.00013739
-0.000660072
3.19486e-05
-0.0267656
-0.0931573
-0.0562557
-0.000107675
-0.0440241
0.0137562
0.000105964
0.000137087
0.000926631
0.00125515
0.0857964
0.191638
0.0916978
0.0900039
0.0741887
-0.0183953
-0.000609596
-0.00169212
-0.0107718
0.00391001
-1.07033
-2.17537
-0.604925
-0.837337
-0.667286
0.103007
-0.000244291
-0.00242961
-0.0243723
0.0255098
-2.09683
-4.56559
-2.80675
-4.47068
-1.33654
1.12056
0.000777078
-0.00116427
-0.024563
0.0195366
-2.11806
-4.49681
-2.49137
-4.57798
-1.66044
1.48931
1.70389e-05
0.000953887
-0.0250894
0.0161357
-1.89268
-4.07105
-1.98529
-3.7696
-1.63217
1.37095
-0.00214782
0.00391388
-0.0273968
0.018623
-1.56853
-3.67661
-1.87066
-3.17422
-1.46344
1.24458
-0.00481896
0.0064907
-0.0270875
0.0176981
-1.10403
-3.165
-2.10332
-2.78648
-1.26518
1.15463
-0.00551449
0.00456893
-0.0143104
-0.0040053
-0.418894
-1.99189
-2.27766
-2.2696
-0.938128
0.857365
-0.00289538
0.00185312
-0.00893136
-0.00338597
-0.329879
-1.22679
-0.60551
0.0135502
-0.69099
0.202515
0.000308049
-0.000155372
0.000871304
-3.59699e-05
0.0277963
0.107573
0.0714033
0.0174628
0.0726669
-0.0247299
-0.000142089
-0.000430711
-0.00137573
-0.00232512
-0.147688
-0.306777
-0.131702
-0.18978
-0.140568
0.0369619
0.000279752
0.00511564
0.0180368
-0.0155119
1.95825
3.62767
0.600808
1.78878
1.32048
-0.218554
-0.00224506
0.00614031
0.0420482
-0.0653882
3.71121
7.59557
4.56614
8.75655
2.03072
-2.47525
-0.00434667
0.00220236
0.0431302
-0.057623
3.67207
7.40911
4.06058
8.89219
2.51842
-3.36987
-0.00182805
-0.0028491
0.0449255
-0.0521428
3.17018
6.55581
3.14683
7.30041
2.5532
-3.11561
0.00381668
-0.00877921
0.0489534
-0.053823
2.45932
5.68878
2.95412
6.09806
2.28949
-2.79992
0.0101108
-0.0130395
0.0459598
-0.0433642
1.48999
4.57704
3.43788
5.27154
1.93975
-2.54451
0.0107802
-0.00809621
0.0176611
0.00850112
0.198024
2.27428
3.80087
4.35511
1.35796
-1.82132
0.00552562
-0.00350008
0.0119162
0.00377647
0.258936
1.3569
0.772075
0.201277
1.24167
-0.417629
-0.000561109
0.000209528
-0.00112762
0.000557082
-0.0228868
-0.11925
-0.094661
-0.0547662
-0.130317
0.0481998
9.405e-05
0.00106501
0.00192947
0.00502359
0.241504
0.45537
0.161836
0.360328
0.237741
-0.0688399
0.00179977
-0.0121992
-0.0282282
0.0220544
-3.41505
-5.71346
-0.133323
-3.16397
-2.07456
0.355694
0.00914324
-0.01224
-0.0708231
0.0983744
-6.16931
-11.9127
-6.96417
-15.2192
-2.28055
4.23319
0.0123962
-0.00205792
-0.0752784
0.085841
-5.91907
-11.4435
-6.27408
-15.5378
-2.85434
5.93224
0.005784
0.00848411
-0.0800027
0.0804684
-4.86432
-9.79615
-4.75294
-12.6952
-3.06764
5.51161
-0.00669037
0.0187946
-0.0858721
0.0839391
-3.41724
-8.04437
-4.53259
-10.4721
-2.78346
4.90469
-0.0192272
0.024275
-0.0746981
0.0590719
-1.55818
-5.88335
-5.59624
-8.8554
-2.3106
4.36708
-0.01814
0.0137959
-0.016532
-0.03419
0.641879
-1.74762
-6.28568
-7.34076
-1.39806
2.99235
-0.00883129
0.00667919
-0.0133429
-0.0130367
0.177064
-0.877117
-1.00377
-0.587508
-1.6939
0.672497
0.000909537
-0.000345324
0.00134237
-0.00160555
-0.00775836
0.0800765
0.113561
0.130346
0.203961
-0.0860704
0.000225548
-0.00219326
-0.00229027
-0.00726751
-0.384755
-0.662224
-0.171785
-0.668463
-0.416594
0.139831
-0.00984155
0.0235732
0.0471104
-0.0870647
5.8023
9.13914
-0.86324
5.64356
3.62306
-0.78891
-0.029046
0.0114027
0.124656
-0.255943
9.73955
18.6202
10.9367
24.8292
1.5521
-8.78387
-0.0325014
-0.0127572
0.136019
-0.243411
8.93573
17.4157
10.012
24.9978
1.83472
-12.5777
-0.0131322
-0.0320644
0.144632
-0.226669
6.86215
14.2958
7.58339
20.2829
2.549
-11.7766
0.0182663
-0.0466346
0.149214
-0.204365
4.15193
11.035
7.49778
16.4167
2.46467
-10.4076
0.0465471
-0.0485899
0.116952
-0.112786
0.906791
7.2876
9.76922
13.4201
1.94714
-9.09574
0.0379095
-0.0253667
0.00717321
0.0812412
-2.42431
0.506694
11.016
11.4219
0.530947
-5.98717
0.0181998
-0.01546
0.0120037
0.0296076
-1.25583
-0.384679
1.85971
1.40441
2.40476
-1.3572
-0.00158932
0.000737434
-0.00136331
0.00443664
0.0799995
0.0296048
-0.141366
-0.276013
-0.330448
0.167152
-0.00125551
0.00408146
0.00281133
0.0114907
0.598107
0.954075
0.143807
1.1132
0.644393
-0.250471
0.0265775
-0.0374106
-0.0829247
0.194317
-9.62705
-15.3123
2.07027
-7.6866
-5.05444
1.20538
0.0570116
-0.0015614
-0.223438
0.463333
-14.6198
-29.8636
-18.5779
-35.8526
0.0641062
12.6609
0.0543686
0.045189
-0.249514
0.435995
-12.5845
-27.0178
-17.5006
-36.3732
0.39282
18.7772
0.0124975
0.0749387
-0.261937
0.392743
-8.74486
-21.152
-13.7176
-29.1383
-0.963688
17.7343
-0.047354
0.088892
-0.254422
0.314748
-4.03377
-15.2884
-14.0822
-22.9013
-1.30875
15.5596
-0.0945193
0.077393
-0.17264
0.102865
1.16802
-8.98919
-18.4212
-17.9374
-0.799119
13.3309
-0.0655819
0.0394104
0.0198918
-0.217648
5.60556
1.70375
-19.7068
-15.7954
1.49452
8.26541
-0.0313813
0.0276997
7.80528e-05
-0.104151
3.48681
3.03225
-4.23082
-2.16775
-2.20251
1.91547
0.0024913
-0.00178681
0.00140661
-0.00828512
-0.219816
-0.251148
0.21601
0.511171
0.455088
-0.282048
0.00462836
-0.00618424
-0.00288115
-0.00728948
-0.897021
-1.39691
-0.121283
-1.76791
-1.08309
0.53372
-0.082498
0.041138
0.163642
-0.549413
15.4185
27.5219
-1.1611
9.82977
8.46819
-3.03091
-0.123733
-0.061178
0.400574
-0.988665
20.4445
49.3674
34.9612
45.9617
-5.57392
-25.1092
-0.0868346
-0.144778
0.444503
-0.91453
16.0643
43.03
33.6598
45.8759
-8.02071
-37.9585
0.0279149
-0.179071
0.450667
-0.759713
9.49213
32.2309
27.6584
36.0679
-5.25843
-36.3807
0.171031
-0.170603
0.401605
-0.485535
2.02282
21.9904
28.391
27.1344
-3.68836
-31.9373
0.263968
-0.11254
0.219533
0.0214052
-5.48669
11.4677
34.8543
20.1558
-4.06331
-26.9787
0.160292
-0.0455387
-0.0855235
0.545194
-10.4025
-4.76501
34.2964
20.115
-8.32023
-15.7479
0.0821446
-0.0414782
-0.0444261
0.328895
-7.46831
-7.94228
9.63392
3.79159
0.76135
-3.89578
-0.00451241
0.00357165
-0.00107814
0.0101205
0.44634
0.60494
-0.390591
-0.904105
-0.625249
0.55902
-0.010393
0.00824279
0.00468103
-0.00977823
1.2939
2.2379
0.277271
2.41282
1.6171
-0.831686
0.142095
-0.0226157
-0.324286
1.28178
-23.5525
-52.0034
-7.01282
-5.19541
-12.4102
4.39169
0.126348
0.135999
-0.673324
1.75997
-26.0917
-83.1059
-68.6778
-48.473
5.49409
27.7371
0.0222141
0.248006
-0.73551
1.48022
-17.8816
-70.1518
-67.0417
-49.2625
9.56658
43.7076
-0.170969
0.270696
-0.715232
1.04495
-7.536
-50.5245
-56.9273
-37.4307
6.5982
42.5297
-0.378164
0.213322
-0.572192
0.377058
3.23488
-32.1938
-56.4383
-26.6059
5.08579
37.2225
-0.472633
0.0929316
-0.217387
-0.596408
12.9413
-13.2397
-62.4251
-19.8309
7.33086
30.6939
-0.255125
0.0305288
0.212047
-1.26696
16.9398
11.3034
-54.5365
-25.2177
15.4025
15.9707
-0.141987
0.0345926
0.159996
-0.925203
13.8179
17.8323
-18.5257
-5.89458
3.49577
4.41151
0.00714467
-0.00657768
0.000234901
2.85344e-05
-0.748424
-1.10894
0.837917
1.4871
0.657913
-0.786516
0.027656
-0.00623073
-0.0102395
0.0813457
-1.7328
-3.77222
-1.16423
-2.69525
-3.11235
2.08806
-0.324352
-0.0773366
0.638079
-2.86465
32.594
96.0576
32.1333
-8.79967
25.7794
-14.5507
-0.0178393
-0.318016
1.04499
-2.87504
27.6435
131.243
126.674
36.902
-8.07566
-55.3068
0.373729
-0.449303
1.10084
-2.08122
14.3013
107.038
123.556
38.4403
-17.0949
-89.5693
0.865536
-0.409467
1.00562
-1.02891
-0.12313
73.4242
105.989
27.7095
-14.4242
-90.6316
1.28947
-0.221136
0.686923
0.357299
-13.5623
41.2553
98.9989
19.2204
-14.2752
-80.7673
1.33511
0.0262853
0.0889551
1.96244
-23.9678
7.18153
96.3898
19.0825
-22.8027
-65.049
0.638646
0.0564852
-0.430082
2.54765
-24.4885
-26.6793
73.8969
35.732
-40.1278
-25.8492
0.378633
0.0265732
-0.404579
2.18856
-22.1015
-37.0066
28.5651
13.0926
-17.9177
-8.80204
-0.0148148
0.00905042
0.00315723
-0.0454452
1.0361
1.705
-1.46551
-2.41843
-0.457813
1.71532
-0.0187764
-0.00344633
0.0214642
-0.167313
1.08776
4.28711
2.74935
0.739978
3.04112
-0.318307
0.145069
0.124864
-0.6931
3.71369
-20.0604
-99.982
-56.2376
28.9834
-24.8231
10.6776
-0.335719
0.177268
-0.802654
2.30426
-6.36096
-104.569
-126.751
-1.99386
-9.34114
18.3338
-0.708383
0.213747
-0.810988
0.934351
4.16352
-79.5285
-121.774
-6.46642
-4.96053
29.9719
-1.03541
0.131293
-0.674455
-0.550071
13.2812
-47.6423
-103.24
-4.80993
-2.46714
31.295
-1.19664
-0.0453881
-0.336448
-2.07567
19.7623
-15.6961
-87.6983
-7.50986
4.12719
27.1222
-1.01218
-0.17582
0.147303
-3.32814
22.5534
17.6814
-70.8438
-19.3367
18.2521
18.2986
-0.417309
-0.0682111
0.401983
-3.07317
17.4896
37.2266
-45.2041
-35.9128
32.1821
0.0560842
-0.271166
-0.074758
0.489591
-3.02987
16.9241
44.0867
-18.7185
-18.5112
20.891
2.23028
0.00931535
-0.00514705
-0.00961318
0.0992343
-0.54645
-1.3245
1.56032
2.42395
-0.108644
-0.247695
0.000303665
-0.0163428
0.0296357
-0.0576174
-0.556857
-2.79826
-3.14203
0.365338
-3.55933
-0.315752
-0.0214736
0.371319
-0.677398
0.931987
11.2541
57.1491
69.9483
-13.7281
14.1389
-0.687207
0.0916495
0.0726067
-0.15775
0.251898
2.30196
36.1944
99.0304
49.5312
10.6086
-5.06703
0.178086
-0.213215
0.33743
-0.616215
-4.34413
19.6141
88.1559
53.7974
15.4821
-10.0891
0.275046
-0.442189
0.694028
-1.24489
-9.89055
1.86055
69.7817
47.6572
13.7979
-11.2286
0.349313
-0.60248
0.895529
-1.52932
-13.2465
-15.5106
51.6862
48.1062
7.17598
-11.1435
0.319311
-0.655574
0.952626
-1.41258
-14.2594
-31.1498
31.3596
56.7206
-2.64905
-10.3947
0.109956
-0.462791
0.745939
-0.891567
-11.3348
-33.652
10.0734
61.4577
-13.125
-4.9323
0.0641585
-0.392892
0.64603
-0.728691
-10.1691
-33.9734
-4.45195
33.7125
-8.91575
-3.52879
0.00198123
0.0124988
-0.0260106
0.0510977
0.18701
0.971297
0.150125
-2.59805
-0.879662
-0.149229
-0.00320092
-0.0119694
0.0351995
-0.108803
0.644189
4.03451
5.69286
-0.40271
3.42878
0.98915
0.0670413
0.318696
-0.560702
1.64419
-15.6868
-88.7597
-100.847
16.279
-12.6092
-3.08943
0.139035
0.526938
-1.01767
2.05002
0.393047
-67.6508
-132.25
-43.0976
-15.9787
1.32911
0.135595
0.521737
-1.09048
2.04562
10.7035
-41.9262
-117.58
-43.5414
-16.431
3.69697
0.0810953
0.392114
-0.953074
1.55997
18.4612
-13.3104
-91.9082
-38.346
-13.6626
3.80081
-0.00105796
0.156372
-0.598493
0.579709
22.2029
12.1954
-65.5786
-40.6044
-9.18933
3.92697
-0.0795278
-0.109314
-0.127722
-0.581159
22.1958
35.0608
-36.7756
-51.7288
-1.54648
4.60069
-0.0807674
-0.202322
0.191807
-1.01804
16.1764
41.032
-12.3054
-60.2283
9.45046
4.67515
-0.038645
-0.179017
0.25792
-1.17147
15.7061
48.3401
6.64131
-36.0961
8.14656
1.8409
0.000101281
0.00334995
-0.0200792
0.062585
-0.156291
-0.980198
0.309848
3.51574
0.556418
0.094017
-0.00544821
-0.0149414
0.0122315
0.0174328
0.106218
-2.60084
-7.17593
0.475298
-3.40697
-1.28211
0.0512875
0.334365
-0.529788
1.44155
6.07842
57.7865
122.2
1.57228
11.4703
4.93773
0.0665439
0.3424
-0.0218541
-0.377828
-9.33093
8.03644
108.887
86.8439
33.9133
15.0716
0.0433488
0.188772
0.403548
-2.02065
-16.2256
-11.7877
88.6741
89.0449
38.6419
15.0073
0.0225809
0.0246841
0.661434
-2.97866
-19.9548
-29.1536
61.455
80.0307
32.1187
12.4549
0.00520139
-0.149275
0.785951
-3.16845
-19.3494
-42.2554
31.3475
78.8646
23.3876
9.56804
-0.0197125
-0.341839
0.858188
-2.79849
-16.2607
-50.985
-0.413949
85.4384
13.558
6.43873
-0.0508531
-0.390559
0.749574
-1.9154
-11.0199
-41.8768
-17.6425
81.9982
3.81147
3.28237
-0.0311838
-0.268336
0.569402
-1.4043
-10.0308
-44.1338
-28.8515
49.0725
-2.93514
0.323285
0.0020822
0.00947324
-0.00866491
-0.00561622
-0.453693
0.110572
1.02395
-4.49706
-1.13439
-0.956752
-0.00127821
-0.0205475
0.0493543
-0.220083
-0.510153
1.5382
8.49235
1.20367
3.58115
-0.256036
0.0108258
0.229003
-0.549241
0.657589
-6.99381
-55.979
-131.658
-23.7589
-11.8
-0.0567167
0.0601098
0.47504
-1.08244
3.4985
9.96972
-14.0271
-96.0155
-90.4764
-30.0462
-7.2335
0.0807791
0.460762
-1.02943
4.65443
18.3094
7.09154
-72.8652
-85.2281
-29.6589
-10.6563
0.0770752
0.340669
-0.775908
4.60747
22.7681
26.1005
-44.1799
-76.0221
-24.6371
-9.63447
0.0583559
0.164161
-0.402206
3.44368
22.0064
36.2776
-15.3726
-72.4406
-19.676
-7.93216
0.0307641
-0.0348011
-0.0384465
1.82529
18.8837
41.4995
11.4263
-73.9224
-14.7399
-5.85771
0.0019214
-0.177302
0.174163
0.602597
13.5051
34.6698
18.2348
-68.5232
-9.26196
-2.37671
0.00780831
-0.0879254
0.191823
0.216716
12.3821
44.7138
35.8825
-48.2772
-2.67334
0.895364
-0.000647883
0.00827693
-0.0340229
0.148684
0.821153
0.966015
-0.866638
5.22513
2.0758
-0.655565
-0.00140936
-0.0110989
0.000149117
0.290562
1.54717
1.49478
-7.59172
-1.78192
-2.0188
-3.79052
0.00794047
0.0705236
-0.105057
0.738197
-0.804606
28.5019
127.865
50.5982
17.1836
13.9997
0.0124209
0.171215
0.0639669
-3.01729
-17.8421
-24.2169
57.2168
118.549
51.3627
21.2618
0.00888056
0.187648
0.104714
-5.05016
-23.3007
-38.6785
34.3676
114.311
48.6541
17.7321
0.00473085
0.170929
0.091223
-5.62547
-24.1559
-47.6338
9.02769
101.587
41.1879
14.5443
0.000419709
0.12103
0.121415
-4.88879
-19.7661
-46.9025
-13.9368
93.1194
35.7088
11.9909
-0.00766838
0.0203476
0.269166
-3.68715
-14.609
-43.9806
-32.6576
88.8453
32.5886
10.0922
-0.0147602
-0.0870877
0.386056
-2.44985
-10.1189
-32.664
-29.5863
75.4599
29.2167
9.00468
-0.00794596
-0.0269477
0.19251
-1.53481
-8.46769
-39.3942
-48.6318
51.2729
11.9905
5.67919
0.000319813
0.000150393
0.0148643
-0.217867
-1.63301
-2.99989
1.01486
-5.61373
-1.22076
-1.61605
0.000839321
0.00163693
0.0206966
-0.557561
-2.33689
-4.79166
3.99494
-2.9843
2.8646
2.98221
-0.00321311
0.00293638
-0.536389
1.09086
1.86014
-13.0498
-104.833
-89.4348
-33.5891
-4.85192
0.00397092
0.0852114
-0.698694
6.37613
17.6254
22.5216
-20.2441
-117.575
-70.7293
-39.2401
0.0104862
0.101769
-0.343082
8.01939
22.8387
33.2709
-0.344016
-108.598
-58.7798
-38.0411
0.0102313
0.0636964
0.0178908
7.57632
23.4376
39.5624
18.799
-96.0838
-45.0529
-31.4475
0.00792304
0.0213801
0.242153
5.52754
19.0418
34.246
29.2154
-84.2342
-30.5549
-25.7379
0.00712125
-0.00922758
0.320616
3.21913
14.8614
29.6407
33.6572
-73.4103
-14.445
-20.9202
0.00567054
-0.0253906
0.295095
1.63307
11.7475
24.2233
20.434
-57.3667
-3.82115
-15.4654
0.00339993
-0.00629747
0.243038
0.794731
8.9771
35.0287
49.8106
-49.4639
-4.69446
-0.452304
-0.000248293
-0.000898278
-0.0273214
0.409037
2.25702
5.41225
0.473809
2.25191
1.93716
3.82797
-0.000347669
-0.000101713
0.049665
0.752229
3.40263
8.99366
3.04758
20.4381
-26.7109
28.0673
0.00210204
0.0177246
0.1651
-1.12264
-7.17472
-6.37279
66.2869
119.083
53.569
-34.882
-0.000482812
0.00820384
-0.410955
-6.99124
-22.896
-35.2047
-16.895
105.182
116.411
-38.854
0.000772553
0.0504098
-0.889638
-8.70873
-25.8018
-39.6696
-28.6429
101.785
113.552
-23.1124
0.00394086
0.0904054
-1.06627
-8.14916
-23.7659
-39.0916
-37.9779
91.0776
114.8
-17.6502
0.00530203
0.0943176
-0.87493
-6.01036
-17.3628
-28.8573
-33.9258
79.4793
127.228
-15.0236
0.00282888
0.0624128
-0.462043
-3.92791
-12.4631
-24.869
-27.2834
68.2059
152.637
-13.9355
-0.0012823
0.0121388
-0.068848
-2.68342
-10.1029
-23.2645
-13.2265
51.7213
162.398
-14.2943
-0.00125989
-0.000928296
-0.150761
-1.20553
-6.49571
-29.9422
-50.1263
45.9411
89.1154
-0.215585
0.000198321
0.0012469
-0.00124039
-0.569471
-2.98395
-8.31424
-3.8633
5.56068
-2.51813
28.2943
0.00040652
0.0022516
-0.0940553
-1.02766
-4.01528
-12.2091
-14.2453
-27.124
23.7184
-121.084
-0.00399922
-0.0517607
-0.310462
3.08658
8.8881
14.7479
-22.3596
-144.558
-101.505
12.3673
-0.00139121
-0.0137696
0.578132
10.2329
22.4282
24.1828
32.191
-63.2782
-100.032
55.8328
-0.00279353
-0.0156546
1.30971
11.313
24.2526
25.169
35.5125
-68.0183
-27.8037
46.0148
-0.00764178
-0.0388963
1.5154
9.67626
21.8038
23.7823
34.9307
-61.2713
31.286
36.5561
-0.00992337
-0.0394115
1.21057
6.46843
16.0162
15.2213
17.7325
-49.7389
100.383
32.7303
-0.00816041
-0.0251151
0.769232
3.65517
12.4738
16.3916
5.45869
-33.9985
184.615
29.5051
-0.00244483
0.00379323
0.465314
2.24504
11.5575
22.1464
-3.18998
-16.8112
238.716
7.79695
0.000630717
0.0196163
0.295192
0.631993
6.16293
27.1535
44.4212
-33.5274
169.941
-63.8995
-0.000165993
-0.00153673
0.0358169
0.756371
3.36368
10.7098
10.2191
-19.4392
57.5535
-128.01
-0.000386675
0.0045828
0.186011
1.20313
4.3502
13.6335
25.9964
-17.4016
81.2246
165.019
0.00842248
0.0592651
-0.0813339
-4.39593
-12.9498
-19.4349
-12.2298
130.815
210.333
13.7214
0.00210484
-0.0658181
-2.00642
-11.4739
-25.787
-20.7306
-22.6209
-12.877
311.595
-10.9774
-0.00464372
-0.125176
-2.85338
-11.9007
-25.9541
-19.5499
-17.9485
15.5138
370.234
-21.7336
-0.0084298
-0.137417
-2.71121
-9.72137
-22.0976
-17.337
-9.57214
12.9113
413.255
-38.834
-0.00988321
-0.125954
-1.88134
-6.31614
-15.7503
-11.7291
13.2251
3.48701
483.77
-64.1517
-0.0084972
-0.0924485
-1.00149
-3.72808
-11.9392
-17.814
19.2185
-12.3193
598.137
-86.6897
-0.00626762
-0.0591732
-0.458158
-2.78092
-10.9904
-26.7412
13.7278
-26.2471
691.398
-60.813
-0.00472018
-0.0429478
-0.241871
-0.505235
-4.39322
-24.894
-41.2127
-18.5888
509.169
120.221
0.000180917
0.00120888
-0.0945044
-0.87088
-3.42947
-11.9633
-19.7186
-19.613
64.4363
407.851
-8.85432e-05
0.00400828
-0.291104
-1.29741
-3.83835
-11.196
-29.3059
-53.2186
32.4498
572.786
-0.00328876
-0.059323
0.684152
6.99425
15.5071
17.1157
15.846
29.0587
171.259
809.319
-0.00479375
0.134004
3.34534
14.0637
25.0703
7.91253
-21.5377
120.92
297.26
839.574
-0.0020706
0.304437
3.9934
13.4801
24.2067
7.59122
-27.4234
78.2264
361.784
873.237
0.00145351
0.368202
3.35136
10.3797
20.3873
9.03242
-38.4535
41.6392
460.119
940.624
0.00391989
0.321932
2.05532
6.43018
15.0481
9.71551
-55.9096
3.87876
635.33
1016.8
0.0041234
0.224131
0.993528
3.55885
12.1508
20.4496
-44.2464
-17.4831
896.752
1085
0.00280236
0.123505
0.58441
2.49617
11.7063
31.9787
-22.1029
-18.3899
1134.7
1150.56
0.000942788
0.0555693
0.105497
-0.0914138
3.34156
23.6634
38.1019
48.3529
978.719
1257.19
0.00014716
-0.00490046
0.187657
0.881201
3.02316
11.0333
24.986
-34.0755
293.701
1289.75
7.558e-05
-6.92447e-05
0.293092
0.99268
2.8874
8.46695
33.2694
-24.018
66.1644
1196.76
0.00135908
0.0209615
-1.11922
-8.61988
-20.2391
-18.008
20.0065
-310.508
555.282
1270.38
0.000239816
-0.27507
-3.62389
-14.305
-28.8673
-5.74117
61.395
-222.932
805.576
1174.28
-0.00444464
-0.484269
-3.83859
-12.9493
-27.4018
-8.26471
68.4174
-232.213
970.912
1136.79
-0.00750344
-0.510029
-2.90621
-9.50716
-22.9939
-12.8067
75.0381
-197.805
1162.2
1127.86
-0.00762607
-0.390687
-1.59592
-5.66812
-17.2888
-16.4869
76.536
-154.094
1416.21
1104.16
-0.00563951
-0.235759
-0.621529
-2.94728
-13.4625
-28.3986
42.9194
-107.632
1711.04
1033.29
-0.00292393
-0.116994
-0.286421
-1.91697
-11.5026
-39.2743
10.2564
-26.3676
1905.01
959.878
-0.000419066
-0.0441057
0.129782
0.767809
-1.65982
-25.3226
-53.8205
-63.1451
1762.44
1032.52
-0.000133679
0.00283409
-0.170439
-0.609697
-2.57914
-10.9233
-35.9671
-84.5751
760.483
1515.65
1.49894e-05
-0.00358753
-0.242822
-0.564726
-0.46672
1.30868
-8.0856
-89.8144
425.847
1262.11
-0.00196761
0.00605454
1.81678
10.7438
22.76
12.5778
-44.8169
-190.267
886.196
1317.22
0.00317936
0.450431
4.56412
15.5914
27.9255
-5.993
-99.8247
-267.453
1135.5
1244.96
0.011378
0.69071
4.44194
13.5003
26.2921
2.288
-96.1476
-310.424
1364.66
1148.52
0.0152055
0.674089
3.16891
9.56844
22.3151
12.6294
-89.3888
-299.756
1654.15
994.422
0.0139914
0.487702
1.62579
5.52548
17.3836
21.7708
-72.1585
-212.311
1924.65
821.514
0.0101335
0.281946
0.556139
2.55759
13.2704
34.5751
-27.7884
-63.62
2110.22
686.981
0.00560013
0.143737
0.223201
1.09003
9.96908
43.9513
5.98583
124.655
2120.72
652.721
0.00163782
0.0533001
-0.248701
-1.39281
-0.636736
21.2907
72.3734
163.979
1868.77
831.648
0.000102389
-0.000618656
0.136795
0.425949
1.67783
8.00812
25.2678
71.1257
1000.18
1364.03
-9.00988e-05
0.00695143
0.172765
0.0806099
-1.31011
-4.67493
-0.50273
-8.7135
528.672
1450.96
0.00101267
-0.113229
-2.66052
-11.9701
-25.2127
-5.53726
68.87
51.5437
1187.53
1187.66
-0.0126143
-0.657042
-4.76069
-15.3988
-31.3186
1.69292
108.392
263.935
1250.88
1091.56
-0.0226206
-0.817483
-4.00306
-12.699
-30.4917
-15.0605
84.8579
237.832
1315.98
1066.41
-0.0239443
-0.687685
-2.44317
-8.52501
-26.3029
-29.5483
61.009
206.575
1480.29
998.221
-0.0187268
-0.423342
-0.955824
-4.50326
-20.3315
-38.5284
37.5697
225.875
1722.01
847.589
-0.0117001
-0.191854
-0.0391069
-1.39278
-13.7436
-45.9963
2.47008
318.728
1926.08
661.992
-0.00595696
-0.08319
0.184252
0.351829
-7.23298
-47.8726
-27.5986
405.63
2061.95
507.213
-0.00243217
-0.0115776
0.526408
2.14635
2.56743
-20.2041
-98.1628
295.168
2059.04
518.887
-6.78423e-05
-0.00208451
-0.0958229
-0.196946
-1.13342
-8.1226
-32.0753
-10.0054
1282.32
1223.63
0.000107132
-0.00728357
-0.105126
0.441257
3.03975
4.83309
-18.2254
123.54
501.671
1572.27
0.00113581
0.223768
3.2566
12.9777
26.2925
0.946894
-69.8423
-13.5127
1272.49
1220.6
0.0217371
0.818887
5.01393
15.6354
32.275
2.41046
-94.839
-33.948
1473.61
1120.22
0.0318336
0.908638
3.95971
12.352
31.5416
25.324
-52.4398
44.939
1613.68
1025.48
0.0304612
0.70874
2.2772
7.77761
26.4931
39.7427
-33.3694
98.5612
1835.59
857.397
0.0222042
0.410244
0.770939
3.46916
19.1554
45.5919
-22.0759
217.263
2053.49
630.842
0.0131604
0.170994
-0.178877
0.0853278
10.4072
46.5075
11.5809
436.984
2114.22
455.641
0.00677516
0.0680179
-0.443695
-1.84704
2.17851
42.5113
70.3236
690.575
1955.13
417.74
0.00269903
-0.00797308
-0.562774
-2.46016
-4.97616
11.6598
134.522
755.051
1753.88
522.624
6.73829e-05
0.00360596
0.0446652
-0.0295789
0.0604299
5.62915
47.2846
264.095
1470.87
952.557
-0.000221661
0.0102603
-0.0397533
-1.03396
-5.22687
-9.96638
3.83127
-10.8206
1036.35
1281.04
-0.00619412
-0.38534
-3.79737
-13.3902
-26.4469
5.78212
128.252
520.143
1531.93
890.762
-0.0345611
-0.977437
-4.84182
-14.6276
-36.5145
-22.294
105.805
662.722
1557.44
803.173
-0.0417918
-0.929914
-3.17453
-10.5812
-35.5778
-48.3703
65.7709
695.961
1567.13
766.524
-0.0350453
-0.621878
-1.2544
-5.6119
-28.5024
-58.6499
60.1736
799.771
1584.86
723.134
-0.0223671
-0.278484
0.210347
-1.17744
-18.4018
-57.8438
50.0435
832.164
1678.04
636.83
-0.010958
-0.0391959
0.96729
1.99108
-7.08244
-49.6526
7.0234
853.075
1790.09
498.908
-0.0047757
0.0273498
0.986477
3.44091
2.33907
-36.6268
-58.7165
834.803
1864.16
386.971
-0.00142435
0.0604681
0.752788
2.49091
5.10462
-9.45177
-107.801
606.749
1919.06
389.223
-6.35934e-05
-0.00266382
-0.00221241
0.3357
1.11016
-1.37809
-28.9563
99.5013
1466.06
991.389
8.02905e-05
0.00915121
0.119332
0.751059
4.23303
1.19699
-32.9031
243.459
690.489
1544.55
0.0127512
0.537127
4.04997
13.813
28.6052
11.6135
-23.514
232.525
1313.89
1107.21
0.0445876
1.02876
4.30427
12.9385
38.4142
51.2157
-13.5304
344.403
1419.57
1024.28
0.0465324
0.846687
2.22009
8.04841
34.8668
71.8266
22.3374
345.043
1509.33
959.763
0.034784
0.480891
0.316275
2.75699
24.3191
69.5869
23.1859
399.407
1643.6
830.036
0.0196045
0.148065
-0.925264
-1.51359
11.527
56.2565
50.6452
614.149
1772.86
622.231
0.00788351
-0.0505446
-1.35641
-3.84006
-0.117594
38.3211
114.314
904.628
1769.49
474.488
0.00287796
-0.0839207
-1.16556
-4.30782
-7.33091
23.5704
195.609
1209.28
1612.28
432.811
-0.000233285
-0.0878544
-0.623898
-1.97477
-5.56659
3.12178
203.837
1292.37
1544.9
438.089
4.43424e-05
0.000328674
-0.0451999
-0.571831
-2.02514
-1.51633
45.739
462.273
1727.16
619.913
-0.000506678
0.0155558
0.0841996
-1.17745
-6.84158
-13.6698
-24.7723
104.738
1342.24
1130.13
-0.0218854
-0.670086
-4.30904
-12.9289
-27.2869
-17.2393
65.5058
934.281
1728.47
717.182
-0.0530402
-1.00269
-3.15808
-9.0476
-36.5901
-68.1841
53.9018
971.29
1700.22
681.425
-0.0477822
-0.66893
-0.597616
-3.60194
-29.9777
-75.6773
47.4165
1090.28
1743.98
546.159
-0.0306236
-0.25011
1.1992
1.39695
-17.0905
-60.5455
64.6551
1210.79
1687.71
474.323
-0.0133705
0.0630921
2.0501
4.63748
-4.28635
-40.6828
62.6734
1218.23
1578.56
515.063
-0.00198781
0.205424
1.94736
5.3695
4.603
-23.6085
35.7432
1172.51
1535.38
520.944
0.00127237
0.183008
1.36543
4.58441
8.79184
-12.1611
-8.82159
1040.03
1511.19
510.273
0.00278444
0.120242
0.513524
1.34076
3.51261
-0.85904
-30.638
777.945
1535.71
549.637
6.6302e-05
0.00291438
0.090819
0.567764
1.92979
3.10705
2.32056
234.146
1419.73
814.842
0.000418978
0.0313069
0.508561
2.31964
7.47376
4.34584
-40.4173
285.717
885.717
1285.34
0.0271329
0.751602
4.23688
10.3102
23.9156
34.4392
-29.0372
595.055
1126.92
961.8
0.0515044
0.80284
1.3318
4.29649
31.0272
81.5768
44.8227
791.462
1208.01
933.258
0.0387488
0.349717
-1.15326
-1.03087
21.4571
74.3386
53.5298
683.741
1167.68
1011.79
0.0189377
-0.0497696
-2.42103
-5.08204
7.70265
49.96
67.3486
753.157
1271.25
992.646
0.00313004
-0.274026
-2.60544
-6.74486
-3.09926
31.5453
120.466
996.323
1424.9
852.123
-0.00480714
-0.308036
-1.93398
-5.85217
-8.54998
20.5578
210.17
1313.89
1456.23
667.49
-0.00501526
-0.222066
-1.14942
-4.17854
-9.97031
12.1688
298.642
1634.14
1417.56
479.876
-0.00440459
-0.111787
-0.222798
-0.651902
-2.93496
3.25247
270.943
1661.32
1519.33
367.105
-0.000149849
-0.00697045
-0.0809005
-0.390067
-1.24043
0.0669428
49.0337
592.664
1923.59
359.677
-0.000568366
0.0229945
0.371871
0.56647
-2.16497
-9.77159
-18.8374
258.479
1526.47
1134.43
-0.0293624
-0.761717
-2.88706
-4.61116
-12.6391
-36.6181
28.6544
1219.07
1749.87
1021.08
-0.0431663
-0.447413
0.751122
1.35094
-20.3513
-64.9578
41.799
1205.72
1668.17
997.754
-0.0240918
0.0530722
2.76345
5.81704
-9.80062
-46.2727
60.2721
1377.13
1867.89
666.598
-0.00425512
0.373149
3.41408
8.3008
1.58913
-23.7957
76.9247
1447.09
1755.97
319.749
0.00809119
0.476154
3.00578
8.16024
8.32334
-10.9965
85.3243
1436.5
1481.73
58.0006
0.0116348
0.398901
1.9583
5.89696
10.1017
-1.55753
86.8731
1352.12
1211.77
56.8997
0.00874831
0.253662
1.02786
3.56525
9.20454
7.30993
90.7518
1168.58
919.794
335.419
0.00542477
0.0908957
0.0690392
0.00945786
0.792691
6.19794
91.7718
931.603
899.56
749.23
0.000269314
0.00819756
0.0548572
0.312866
0.811426
3.11929
28.1945
392.841
1189.88
965.045
1181.27
797.881
1352.4
746.193
1360.97
635.175
1390.79
578.143
1412.09
545.715
1140.12
897.61
1168.8
782.737
1249.93
717.017
1320.49
646.561
1380.72
591.627
1127.33
907.386
1130.22
806.376
1224.33
745.439
1297.06
668.722
1363.65
602.342
1111.04
931.858
1104.42
832.977
1194.87
770.579
1273.02
687.728
1345.63
616.092
1081.59
972.689
1060.54
879.338
1145.9
814.106
1230.17
722.46
1311.79
641.302
1046.81
1020.94
1004.45
940.164
1082.07
873.246
1170.94
771.839
1263.09
677.848
1013.14
1069.07
944.205
1007.3
1011.39
940.87
1102.18
830.472
1204.65
722.217
983.304
1111.5
893.289
1066.2
950.696
998.79
1042.27
881.193
1153.45
760.957
950.91
1151.21
894.313
1085.87
947.723
995.095
1047.54
867.807
1163.38
747.931
920.761
1089.19
1081.07
1004.78
1157.2
819.076
1255.89
677.742
1339.21
575.378
994.684
1024.56
1047.49
935.498
1097.91
854.529
1161.19
781.456
1227.53
719.341
923.868
1060.64
948.898
1019.79
994.472
967.394
1047
904.824
1110.64
834.109
943.613
1040.06
959.202
1015.08
996.172
972.211
1039.89
916.703
1097.09
849.835
951.413
1037.16
955.764
1021.35
985.125
985.371
1024.18
933.423
1079.7
867.551
949.992
1046.91
939.371
1042.94
958.487
1014.8
992.247
965.476
1047.08
897.705
953.231
1055.86
922.319
1069.02
924.917
1053.19
948.416
1009.58
1000.09
940.507
971.842
1050.02
917.62
1084.54
897.84
1087
904.534
1056.13
947.164
991.849
992.1
1037.8
919.48
1090.41
879.684
1110.78
870.02
1094.75
901.817
1039.19
974.657
1062.69
899.694
1109.46
858.669
1126.76
852.441
1107.23
889.5
1049.18
862.074
1201.6
842.281
1168.81
848.5
1109.07
896.707
1028.78
976.871
938.507
928.114
1050.59
958.431
1011.46
991.191
975.816
1028.26
939.571
1067.89
904.109
877.704
1109.56
873.314
1104.48
884.91
1086.34
907.753
1058.51
941.641
1022.57
891.026
1102.85
867.239
1115.3
864.749