/*--------------------------------*- C++ -*----------------------------------*\
| =========                 |                                                 |
| \\      /  F ield         | OpenFOAM: The Open Source CFD Toolbox           |
|  \\    /   O peration     | Version:  1.7.x                                 |
|   \\  /    A nd           | Web:      www.OpenFOAM.com                      |
|    \\/     M anipulation  |                                                 |
\*---------------------------------------------------------------------------*/
FoamFile
{
    version     2.0;
    format      ascii;
    class       surfaceScalarField;
    location    "0.5";
    object      phi;
}
// * * * * * * * * * * * * * * * * * * * * * * * * * * * * * * * * * * * * * //

dimensions      [0 3 -1 0 0 0 0];

internalField   nonuniform List<scalar> 
22300
(
0.00065294
0.000795264
0.0485518
0.000142645
0.000878536
0.0496318
-5.01452e-05
0.000812325
0.0493805
-9.65197e-05
0.000743923
0.0493025
-9.44372e-05
0.000737908
0.04926
-7.08806e-05
0.000739808
0.0492366
-5.96124e-05
0.000758959
0.0492298
-0.000202135
0.000820443
0.0493221
-0.000691647
0.000900401
0.0495891
0.000845682
0.0484627
0.000543182
0.000401272
0.0498508
7.14413e-05
0.000500028
0.0508502
-0.000116337
0.000425591
0.0505745
-0.000153559
0.000344945
0.0504362
-0.000104858
0.000333169
0.050356
-3.32507e-05
0.00033978
0.0503284
2.19669e-05
0.000375695
0.050328
-8.38846e-05
0.000459121
0.0504672
-0.000527698
0.000507455
0.0508368
0.000425269
0.0498927
0.000543047
0.000217553
0.0496407
9.62705e-05
0.000293255
0.0506535
-0.000120411
0.000235211
0.0504071
-0.000176016
0.000177761
0.0502228
-0.000128043
0.000166959
0.0501182
-6.05557e-05
0.000174212
0.0500981
-1.44495e-05
0.000208195
0.0501214
-8.6319e-05
0.000276305
0.0502547
-0.000474367
0.000293936
0.0506016
0.000207376
0.0497435
0.00056288
9.57238e-05
0.0495589
0.000112615
0.000136457
0.0506071
-0.000128574
0.000106776
0.0503696
-0.00018594
8.03629e-05
0.0501548
-0.000136215
7.52086e-05
0.050042
-7.1101e-05
7.99933e-05
0.0500291
-3.09375e-05
9.94415e-05
0.0500686
-9.01205e-05
0.000132123
0.0502034
-0.000460559
0.000137189
0.0505272
8.60946e-05
0.0496607
0.000562297
-7.03651e-06
0.0495405
0.000107854
4.42344e-07
0.0505905
-0.000139446
-1.52066e-06
0.0503556
-0.000191038
-1.84745e-06
0.0501338
-0.00013649
-3.98392e-07
0.0500211
-6.79318e-05
8.10853e-07
0.0500106
-2.57533e-05
2.97709e-06
0.0500543
-8.38863e-05
-8.12246e-07
0.0501911
-0.000454556
-2.08355e-06
0.0505099
-3.28515e-06
0.0496348
0.000560088
-0.000108522
0.0495414
0.000106303
-0.000135142
0.0505894
-0.000140634
-0.00010949
0.0503549
-0.000191085
-8.40572e-05
0.0501327
-0.00013468
-7.63441e-05
0.0500195
-6.3038e-05
-7.9361e-05
0.0500085
-1.70393e-05
-9.58199e-05
0.0500528
-7.52042e-05
-0.000135841
0.0501932
-0.000449094
-0.000142249
0.0505141
-9.119e-05
0.0496388
0.000559616
-0.000228184
0.04956
0.000110725
-0.000291953
0.0506057
-0.000131061
-0.000237156
0.0503694
-0.000185925
-0.000180787
0.0501516
-0.000130621
-0.000168879
0.0500372
-5.59689e-05
-0.000176802
0.0500228
-3.96241e-06
-0.000212645
0.0500648
-6.38194e-05
-0.000287204
0.0502112
-0.000443429
-0.000302766
0.0505401
-0.000206546
0.0496719
0.000536636
-0.000407677
0.0496429
9.24716e-05
-0.000500354
0.0506526
-0.000124821
-0.000428292
0.0504084
-0.000176694
-0.000347065
0.0502182
-0.000119984
-0.000336078
0.0501105
-3.84631e-05
-0.000346345
0.050088
2.13192e-05
-0.000387938
0.0501155
-5.07204e-05
-0.000477541
0.0502624
-0.000452155
-0.000516993
0.0506157
-0.000416612
0.0497579
0.000527262
-0.000795167
0.0498602
5.92011e-05
-0.000880684
0.0508484
-0.000127344
-0.00081635
0.0505746
-0.000158693
-0.000745781
0.0504301
-0.000101076
-0.00074044
0.0503467
-1.84906e-05
-0.000745403
0.0503165
4.50641e-05
-0.000768431
0.0503169
-6.60057e-05
-0.000828351
0.0504619
-0.000520529
-0.000898738
0.0508363
-0.000838863
0.0499017
0.000645215
0.0485596
0.000134713
0.0496298
-5.87792e-05
0.0493771
-0.000101807
0.0492972
-9.55596e-05
0.0492533
-6.85614e-05
0.0492276
-5.70193e-05
0.04922
-0.000201539
0.0493162
-0.000691862
0.0495916
0.0484693
0.00117686
0.00117464
0.0462003
0.000724834
0.00100325
0.0490805
0.000292518
0.00110069
0.0487121
-9.43448e-05
0.00124789
0.0484414
-0.000419449
0.00128822
0.0482969
-0.00071972
0.00129395
0.048243
-0.00104476
0.0012698
0.048285
-0.0013482
0.00117154
0.048454
-0.00157349
0.00111243
0.048702
0.00115083
0.0457384
0.0014257
0.000687053
0.0489127
0.000950052
0.000475923
0.0518532
0.000459355
0.000612663
0.0515532
2.07972e-05
0.000770801
0.0513519
-0.000380373
0.000812787
0.0512326
-0.000738863
0.000801778
0.0511791
-0.0010853
0.000729926
0.0512144
-0.00144235
0.000579666
0.0514161
-0.00174993
0.000556607
0.0517002
0.000721571
0.048572
0.00147711
0.000351786
0.0484988
0.000981177
0.000209292
0.0514161
0.000518299
0.000319554
0.051163
6.67364e-05
0.000423765
0.0510214
-0.000353115
0.000447732
0.0509032
-0.000718781
0.000432185
0.0508333
-0.00105054
0.000362532
0.0508206
-0.00141788
0.000232691
0.050969
-0.00178375
0.0002212
0.0513029
0.000411497
0.0482699
0.00146102
0.000161505
0.0482882
0.000970055
9.54917e-05
0.0512118
0.000543083
0.000145859
0.0509703
8.4794e-05
0.000191469
0.0508454
-0.000346529
0.000199501
0.0507216
-0.000715219
0.000188605
0.0506414
-0.00103916
0.000150455
0.0506046
-0.00140333
8.5743e-05
0.0507145
-0.00178572
7.90692e-05
0.0510517
0.000184195
0.0481023
0.0014649
1.45257e-05
0.0482225
0.00098044
1.67207e-06
0.0511687
0.000560097
1.07842e-06
0.0509207
9.14058e-05
7.43128e-07
0.0507932
-0.000348926
-3.70935e-06
0.0506646
-0.000723839
-8.22367e-06
0.0505824
-0.00104943
-1.50651e-05
0.0505454
-0.00140843
-1.48141e-05
0.0506506
-0.00178607
-1.27075e-05
0.0509794
-1.29328e-05
0.0480459
0.00146995
-0.00013465
0.0482206
0.000983569
-9.33578e-05
0.0511708
0.000560774
-0.000143938
0.0509227
8.886e-05
-0.00018963
0.0507949
-0.000355968
-0.000205796
0.0506665
-0.000738026
-0.000202673
0.050585
-0.00107259
-0.000175769
0.0505481
-0.00143257
-0.000109749
0.0506481
-0.00179664
-0.000100339
0.0509658
-0.000208594
0.0480378
0.00147084
-0.00032867
0.0482832
0.000974199
-0.000206519
0.0512155
0.000543517
-0.000318524
0.0509747
7.74492e-05
-0.000422473
0.0508505
-0.000367444
-0.000451008
0.0507273
-0.000758108
-0.000438147
0.0506489
-0.00110753
-0.000372112
0.0506106
-0.00147377
-0.000234781
0.0507025
-0.00181713
-0.000224911
0.0510081
-0.000433656
0.0480799
0.00149607
-0.000669081
0.0484872
0.000991317
-0.000465341
0.0514161
0.00052124
-0.000607691
0.0511677
5.7186e-05
-0.000769168
0.0510289
-0.000384031
-0.000810513
0.0509112
-0.000782948
-0.000794204
0.050843
-0.00115004
-0.000714822
0.0508253
-0.00151623
-0.000552935
0.0509467
-0.00182474
-0.000542865
0.0512421
-0.000742571
0.0482421
0.00146137
-0.00116741
0.0488972
0.000980063
-0.000989038
0.0518534
0.000474423
-0.00108913
0.0515617
1.74212e-05
-0.00124378
0.0513617
-0.000404327
-0.00128321
0.0512412
-0.000787412
-0.00128262
0.051188
-0.00115462
-0.00125006
0.0512194
-0.00150267
-0.00114953
0.0514065
-0.00176948
-0.00111182
0.051672
-0.00116668
0.0485564
0.00118851
0.0462037
0.000736768
0.0490925
0.000300188
0.0487246
-9.67105e-05
0.0484504
-0.000430569
0.048304
-0.000736021
0.0482504
-0.00105947
0.0482934
-0.00135492
0.0484621
-0.00157706
0.0487019
0.0457255
0.00101576
0.00144878
0.0437357
0.000432543
0.00170129
0.0479625
-6.2944e-05
0.00157663
0.0476309
-0.00039588
0.0014482
0.0473262
-0.000632714
0.00141324
0.0471205
-0.000806883
0.00142393
0.0469932
-0.000954234
0.00148237
0.04695
-0.00118338
0.00158243
0.0471007
-0.00141453
0.00163658
0.0472965
0.00144795
0.0428759
0.000792339
0.00122504
0.0483441
0.000177761
0.00148909
0.05268
-0.000221147
0.00130028
0.0522285
-0.000473299
0.0011493
0.0519029
-0.000642892
0.0011219
0.0516936
-0.000774333
0.00115535
0.0515791
-0.000921394
0.00127505
0.0515687
-0.00115963
0.00146055
0.0517762
-0.00135097
0.00149903
0.0520291
0.00115256
0.0475165
0.00066371
0.000796967
0.0482632
7.81115e-05
0.000953956
0.0525368
-0.000290276
0.000814351
0.0520174
-0.000497384
0.000719757
0.051658
-0.000626061
0.000710863
0.0514429
-0.000725896
0.000741855
0.0513467
-0.000864272
0.000839104
0.0513949
-0.00111684
0.00100091
0.0516812
-0.00132098
0.00104026
0.0519658
0.000724141
0.0473773
0.000649127
0.000367799
0.0480682
6.30508e-05
0.00043324
0.0523186
-0.000319751
0.000376011
0.0517914
-0.000506135
0.000338525
0.051413
-0.000609471
0.000337208
0.0511986
-0.000690431
0.000352458
0.0511117
-0.000828355
0.000396854
0.0511848
-0.00110103
0.000472808
0.0515153
-0.00132686
0.000498829
0.051819
0.000342268
0.0471573
0.00063781
-1.11742e-05
0.0479637
4.48843e-05
-7.39281e-07
0.0521956
-0.000339632
2.03106e-06
0.0516792
-0.000510784
1.21391e-06
0.0513017
-0.000600555
1.4286e-06
0.0510902
-0.000669845
1.11467e-06
0.051003
-0.000804071
3.6268e-06
0.0510729
-0.00108987
8.39856e-07
0.0514084
-0.0013367
4.69328e-07
0.0517246
-1.62943e-06
0.0470531
0.000629406
-0.000387659
0.0479677
3.82417e-05
-0.000432819
0.052194
-0.000343127
-0.000371088
0.0516772
-0.000511648
-0.000335907
0.0513006
-0.00059776
-0.000334496
0.0510885
-0.000658685
-0.000350918
0.050998
-0.000780471
-0.000390842
0.0510643
-0.00106308
-0.000471534
0.0514031
-0.00132857
-0.000498708
0.0517304
-0.000346763
0.0470544
0.000628807
-0.000813295
0.04808
4.76972e-05
-0.000953263
0.052317
-0.000328855
-0.000808178
0.0517884
-0.000508806
-0.000715931
0.0514105
-0.000600887
-0.00070905
0.051194
-0.000656555
-0.000744395
0.0510981
-0.000759882
-0.000840356
0.0511634
-0.00102529
-0.00101077
0.0515071
-0.00130344
-0.001055
0.0518425
-0.000732151
0.0471618
0.000627119
-0.00123971
0.0482865
5.02856e-05
-0.0014997
0.0525394
-0.000305703
-0.00129833
0.0520138
-0.000502566
-0.0011446
0.0516544
-0.000614266
-0.00112233
0.0514362
-0.000676639
-0.00116686
0.0513278
-0.000766132
-0.00129512
0.0513696
-0.00101132
-0.00149773
0.0516789
-0.00129032
-0.00153879
0.0520049
-0.00116152
0.0473811
0.000737257
-0.00145687
0.0483771
0.000125341
-0.00172037
0.052686
-0.00025142
-0.00158385
0.052224
-0.000487116
-0.00144786
0.0519006
-0.000641656
-0.001416
0.0516894
-0.000745148
-0.00143871
0.0515633
-0.000855962
-0.00151126
0.0515463
-0.00109324
-0.0016212
0.0517673
-0.0013406
-0.00166071
0.0520413
-0.00144865
0.0475029
0.000993223
0.0437536
0.000402325
0.047963
-8.86628e-05
0.0476317
-0.000417673
0.0473315
-0.000653027
0.0471233
-0.000827277
0.046986
-0.000975443
0.0469303
-0.00120544
0.0470709
-0.00143001
0.0472658
0.0428469
0.00111124
0.00105678
0.0415677
0.000677804
0.000932923
0.047463
4.97169e-05
0.00112333
0.0471357
-0.000522154
0.0012872
0.0466108
-0.00101319
0.00132271
0.0462888
-0.00144003
0.00131208
0.046108
-0.0018126
0.00124806
0.0460745
-0.00203825
0.00111194
0.0462144
-0.00185361
0.00106893
0.046043
0.00120775
0.0398145
0.00157992
0.000748374
0.0470726
0.00115814
0.00064018
0.0533945
0.000267381
0.000912649
0.0533299
-0.00043155
0.00109645
0.0527926
-0.00101326
0.00111942
0.0524786
-0.00151038
0.00108079
0.0523075
-0.00191235
0.000945709
0.0522731
-0.00218896
0.000689227
0.0524755
-0.00202791
0.000614396
0.0523225
0.000947597
0.0457487
0.00180445
0.000494209
0.0467129
0.00132275
0.000432318
0.0532264
0.000328323
0.000620114
0.0533043
-0.000417194
0.000738016
0.052762
-0.0010435
0.000745301
0.0524433
-0.00159161
0.000710496
0.0522651
-0.00202881
0.000603663
0.0521741
-0.00230484
0.000384705
0.0522618
-0.00205874
0.000290784
0.0520433
0.00060976
0.0456564
0.00188229
0.000286546
0.0463936
0.00137003
0.000259302
0.0530039
0.000356234
0.00032609
0.0530993
-0.000413199
0.000373057
0.0525474
-0.0010677
0.000372593
0.0522258
-0.00164488
0.000353512
0.0520459
-0.0020949
0.000304368
0.0519341
-0.00235638
0.000202305
0.0519592
-0.00206752
0.000141187
0.0516797
0.000288246
0.0454113
0.00191811
4.22231e-05
0.0462899
0.00140549
3.21638e-05
0.0529354
0.000378744
1.82343e-05
0.0530138
-0.000410318
1.39824e-05
0.0524498
-0.00108083
7.70337e-06
0.0521256
-0.00167512
1.74156e-06
0.0519491
-0.00213594
-6.87338e-06
0.0518449
-0.00238525
-1.31124e-05
0.0518731
-0.00206697
-2.89833e-05
0.0515764
-3.91733e-05
0.0453135
0.00192952
-0.000208939
0.0462893
0.00141473
-0.000200212
0.0529412
0.000380063
-0.000291243
0.0530213
-0.000414159
-0.000346086
0.0524549
-0.00108972
-0.000357845
0.0521296
-0.00169389
-0.000350155
0.0519541
-0.00216918
-0.000319028
0.0518518
-0.00242442
-0.00023167
0.0518769
-0.00208097
-0.000200245
0.0515583
-0.000360709
0.045295
0.00191247
-0.000428208
0.0463868
0.00139189
-0.000379332
0.0530167
0.000358537
-0.000588924
0.0531194
-0.000424519
-0.000714698
0.0525621
-0.00109486
-0.000731474
0.0522379
-0.00170195
-0.000704716
0.0520597
-0.00219038
-0.000616832
0.0519497
-0.00246567
-0.000409649
0.0519604
-0.00210663
-0.000331483
0.0516147
-0.000660117
0.0453546
0.00185662
-0.000690144
0.0466918
0.00135967
-0.000583915
0.0532409
0.000330259
-0.000882723
0.053337
-0.000436485
-0.00107935
0.0527858
-0.00108825
-0.00110566
0.0524621
-0.0016828
-0.00106654
0.0522842
-0.00217546
-0.000942187
0.0521876
-0.00246694
-0.000682654
0.0522434
-0.00211636
-0.000607616
0.0519305
-0.000969062
0.0455737
0.00165086
-0.00101537
0.0470514
0.00121852
-0.000885389
0.0534198
0.000276248
-0.0010965
0.05338
-0.000453289
-0.00127558
0.0528264
-0.00106191
-0.00131102
0.0525034
-0.00160082
-0.00129198
0.0523277
-0.00205337
-0.00122034
0.052277
-0.00233585
-0.00107671
0.0524438
-0.00207672
-0.00105246
0.052227
-0.00122076
0.0456779
0.0011393
0.0415989
0.000709955
0.047507
5.65406e-05
0.0471886
-0.000535529
0.046648
-0.00104106
0.0463178
-0.00147553
0.0461285
-0.00184601
0.0460804
-0.00206272
0.0462109
-0.00186785
0.0460185
0.0397583
0.000621001
0.00150597
0.0394408
-4.76687e-05
0.00175331
0.0463783
-0.000598041
0.00153372
0.0461523
-0.0010103
0.00135923
0.0456639
-0.00128633
0.00133094
0.0452339
-0.00144778
0.00137374
0.0448957
-0.00151112
0.00148336
0.0446545
-0.00154966
0.00166947
0.0445835
-0.00153323
0.00179345
0.0442331
0.00148749
0.0367938
0.000236956
0.00140932
0.0469323
-0.000511254
0.00170166
0.0541944
-0.000736356
0.00137762
0.0537111
-0.00102746
0.00119423
0.0532487
-0.0012667
0.00117751
0.0528713
-0.00140152
0.001245
0.0525711
-0.00146031
0.00142447
0.0523907
-0.00148982
0.00175058
0.0524239
-0.00147121
0.0019142
0.0521832
0.00134313
0.0444219
-7.26946e-05
0.000945197
0.0472497
-0.000774977
0.0011224
0.0545079
-0.000826352
0.000919728
0.0538136
-0.00102289
0.0008076
0.0533452
-0.00119791
0.000803843
0.052992
-0.00124161
0.000850663
0.0527031
-0.00119844
0.000970727
0.0525847
-0.00122743
0.00123539
0.052806
-0.00136761
0.00142317
0.0526745
0.000934737
0.0446972
-0.000183847
0.000434771
0.0470879
-0.000876142
0.000515787
0.0543028
-0.000872627
0.00045764
0.0535578
-0.00102771
0.000412801
0.0530972
-0.00116274
0.000410468
0.0527542
-0.00115485
0.000427148
0.0524615
-0.00107042
0.000468735
0.0523517
-0.00111149
0.00057968
0.0526559
-0.0013433
0.000683395
0.0526513
0.000467652
0.0445351
-0.000230331
-1.34885e-05
0.0469685
-0.000928111
-1.00961e-05
0.0541591
-0.000897521
1.6238e-05
0.0534246
-0.00103367
1.90178e-05
0.0529798
-0.00115463
1.49419e-05
0.052642
-0.00112664
5.49397e-06
0.0523427
-0.00102339
-7.18932e-06
0.0522176
-0.00107236
-1.9847e-05
0.0525216
-0.00135123
-1.29584e-05
0.0525517
3.26859e-07
0.0444296
-0.00024446
-0.000455148
0.0469755
-0.000946129
-0.000529702
0.0541625
-0.000906137
-0.000426528
0.0534241
-0.00103976
-0.000375826
0.0529833
-0.00116176
-0.000380646
0.0526472
-0.00113029
-0.00041466
0.0523428
-0.00101698
-0.000475277
0.0522065
-0.00105685
-0.000605064
0.052502
-0.00135284
-0.000695345
0.0525366
-0.000466104
0.0444086
-0.000228229
-0.00095575
0.0471157
-0.000924657
-0.00113291
0.0543164
-0.000897441
-0.000891229
0.0535569
-0.00104578
-0.000772151
0.0531068
-0.00118205
-0.000774418
0.052768
-0.00116279
-0.000835703
0.0524615
-0.0010526
-0.000959186
0.0523234
-0.00107177
-0.00123359
0.0526081
-0.00134917
-0.00142457
0.0526213
-0.000942659
0.044482
-0.000142061
-0.00142546
0.0473036
-0.000850708
-0.00172173
0.0545384
-0.000861209
-0.0013557
0.053812
-0.00104671
-0.00116093
0.0533601
-0.00122231
-0.00115084
0.0530142
-0.00124681
-0.00123227
0.0527053
-0.00116295
-0.00140763
0.0525522
-0.00115959
-0.0017527
0.0527591
-0.00137282
-0.00194618
0.0526653
-0.00136942
0.0446277
0.000143792
-0.00152674
0.0470089
-0.000608866
-0.00178635
0.0542371
-0.000777034
-0.00152471
0.0537172
-0.00105209
-0.001337
0.0532775
-0.00129465
-0.00131466
0.0529098
-0.00141335
-0.00137544
0.0525895
-0.00142081
-0.00150216
0.052379
-0.00141934
-0.00171513
0.0524048
-0.00148034
-0.0018341
0.0521759
-0.00150082
0.0443289
0.000566813
0.0395054
-0.00012446
0.0464119
-0.000645252
0.0461847
-0.00105196
0.0457177
-0.00134373
0.0452949
-0.00152893
0.0449382
-0.00160393
0.0446533
-0.00163387
0.0445257
-0.00158996
0.0441405
0.0366675
0.000742351
0.000868186
0.0378302
0.000124744
0.00083168
0.0461643
-0.00074321
0.00111694
0.0459034
-0.00133183
0.00128082
0.0449717
-0.00176987
0.00132519
0.0443468
-0.00212259
0.00130258
0.0439458
-0.00245074
0.00120241
0.0437802
-0.00267078
0.00102453
0.043779
-0.00223924
0.000966209
0.0428354
0.00118928
0.0333653
0.00134779
0.000619268
0.0458334
0.00074719
0.000612648
0.055014
-0.000490396
0.000974802
0.0550908
-0.00126118
0.0011653
0.054135
-0.00179734
0.00119725
0.0535354
-0.00224749
0.00115823
0.0531656
-0.00266847
0.00101505
0.0529991
-0.00296493
0.000675555
0.0530694
-0.00251025
0.000474847
0.0522199
0.000952511
0.0421484
0.00163839
0.000461707
0.0457689
0.00102065
0.000483604
0.0552547
-0.00040681
0.000694328
0.0555215
-0.00125917
0.00081598
0.0545469
-0.0018445
0.000833156
0.0539414
-0.00238917
0.000811557
0.0535945
-0.0029349
0.000734256
0.0534112
-0.00322959
0.000472511
0.0533037
-0.00251655
0.000218663
0.0522176
0.000591044
0.0425421
0.0018124
0.000327977
0.0454092
0.00117539
0.000338431
0.055085
-0.000343828
0.000386463
0.0553849
-0.00124499
0.000434228
0.0543802
-0.00186387
0.000440365
0.0537659
-0.002458
0.00043002
0.0534372
-0.00305366
0.000404182
0.0532774
-0.00333416
0.000297283
0.0531117
-0.00249659
0.000161284
0.0518711
0.000284657
0.0423449
0.00188909
9.10271e-05
0.0453164
0.00125118
9.93934e-05
0.055036
-0.000311379
5.62059e-05
0.0553174
-0.00123663
4.34677e-05
0.0542958
-0.00186974
3.78706e-05
0.0536776
-0.00248633
3.22227e-05
0.0533571
-0.00310988
2.86631e-05
0.0532167
-0.00338595
2.58718e-05
0.0530691
-0.00248835
-1.04454e-05
0.0518258
-6.75013e-05
0.0422934
0.00190845
-0.000161278
0.0453193
0.00127213
-0.000150979
0.0550491
-0.000305302
-0.000276573
0.0553343
-0.0012386
-0.000349851
0.0543099
-0.00187512
-0.000367672
0.0536893
-0.00249695
-0.000368983
0.0533658
-0.00312706
-0.000355797
0.0532211
-0.00341249
-0.000262597
0.0530759
-0.00249723
-0.000201754
0.0518127
-0.000411787
0.0422556
0.00187084
-0.000319269
0.0454028
0.00123699
-0.000316637
0.0551159
-0.000324907
-0.000591384
0.0554336
-0.00125001
-0.000739716
0.0544218
-0.00188089
-0.000768676
0.0537999
-0.00249181
-0.00075893
0.0534624
-0.00310147
-0.00071236
0.0532896
-0.00340162
-0.000478237
0.0531239
-0.00251803
-0.000282862
0.0518189
-0.000683786
0.0422359
0.00172601
-0.000489063
0.0457474
0.00111222
-0.000469904
0.0553055
-0.000384997
-0.000888031
0.0556059
-0.00127477
-0.00110658
0.0546168
-0.00188012
-0.00114769
0.0539985
-0.00245354
-0.00111945
0.0536392
-0.00302639
-0.00101974
0.0534324
-0.00334828
-0.000697633
0.0533004
-0.00255769
-0.0005002
0.0520921
-0.000975249
0.0423614
0.00144057
-0.00076393
0.0458432
0.000842876
-0.00073266
0.0550975
-0.000480348
-0.00105896
0.0552113
-0.00129719
-0.00124685
0.0542346
-0.00186175
-0.0012939
0.0536205
-0.00235609
-0.00126726
0.0532317
-0.00284202
-0.00116978
0.053015
-0.00316647
-0.000976889
0.0530085
-0.00258233
-0.000939944
0.0520316
-0.00119051
0.0419619
0.000812727
0.0379287
0.000196499
0.0462955
-0.000723196
0.0460455
-0.00135603
0.0451037
-0.00182442
0.0444694
-0.00219521
0.0440417
-0.00253438
0.0438227
-0.00274788
0.0437623
-0.00228558
0.0427382
0.0331914
-0.000113573
0.00145587
0.0364879
-0.00111527
0.00174202
0.0454239
-0.001643
0.00144262
0.0449885
-0.00207877
0.00133879
0.0440686
-0.0022557
0.00134524
0.0431785
-0.00231257
0.00140886
0.0425938
-0.00238618
0.00153568
0.0423181
-0.00226121
0.00177254
0.0418815
-0.0018306
0.0019995
0.0404052
0.00159376
0.0299409
-0.000322012
0.00138011
0.0462312
-0.00149756
0.00164314
0.0562884
-0.00161668
0.00133958
0.055313
-0.00194649
0.00123832
0.0545653
-0.00217652
0.00125382
0.0538568
-0.00225029
0.00131873
0.0533295
-0.00226583
0.00145466
0.0530956
-0.00203197
0.00184738
0.0527607
-0.00171267
0.00228151
0.0516185
0.00162381
0.0404057
-0.000637501
0.000879435
0.0469071
-0.00180935
0.00104375
0.0570259
-0.00166227
0.000903858
0.0558102
-0.00190509
0.000856246
0.0551717
-0.00211698
0.000871758
0.0545354
-0.00211237
0.0009063
0.0540023
-0.0019684
0.000959903
0.053762
-0.0016574
0.00123465
0.0536054
-0.00160651
0.00164062
0.0528076
0.00113929
0.0414201
-0.000849203
0.000382386
0.0467555
-0.00199354
0.000465922
0.0568071
-0.00171997
0.000467318
0.0555479
-0.00191782
0.000457753
0.0549765
-0.002112
0.000464627
0.0543672
-0.00206441
0.000471653
0.0538243
-0.00185394
0.000465396
0.0535614
-0.00150914
0.00053687
0.0534646
-0.00155826
0.000705354
0.0528555
0.000515561
0.0414104
-0.000929765
-7.99549e-06
0.0466365
-0.00206413
-3.02421e-05
0.0566665
-0.00174088
4.4016e-05
0.0554175
-0.00192832
6.32405e-05
0.0548777
-0.00212232
5.6576e-05
0.0542797
-0.00206249
3.46455e-05
0.0537343
-0.00182624
-1.2805e-05
0.0534586
-0.00146811
-9.28323e-05
0.0533407
-0.00155656
-0.000128821
0.0527484
-7.13703e-05
0.0413238
-0.000943671
-0.000383912
0.0466389
-0.00208235
-0.000515991
0.0566736
-0.00174846
-0.000381733
0.0554262
-0.00193937
-0.000334044
0.0548981
-0.00214504
-0.000353333
0.0543048
-0.00209946
-0.000401837
0.0537567
-0.00188258
-0.000477638
0.0534691
-0.00151877
-0.000686875
0.0533061
-0.00158584
-0.000907804
0.0526587
-0.000631739
0.0412302
-0.000897506
-0.000858117
0.0467745
-0.00205113
-0.00107997
0.0568335
-0.00174594
-0.000826004
0.0555727
-0.00195165
-0.000741725
0.0550352
-0.00217877
-0.000766098
0.0544398
-0.00217131
-0.000834543
0.0538876
-0.00201689
-0.000933747
0.0535913
-0.00165937
-0.00129065
0.0533702
-0.00164675
-0.00171281
0.0526112
-0.00119432
0.0411518
-0.000707149
-0.00134856
0.046945
-0.00189445
-0.00165026
0.057063
-0.0016952
-0.0012669
0.0558475
-0.0019505
-0.00113781
0.0552681
-0.00221608
-0.00115806
0.0546561
-0.00227391
-0.00124247
0.054105
-0.00220271
-0.0013803
0.0538078
-0.00186386
-0.00180752
0.0534784
-0.00173557
-0.00225261
0.0525036
-0.0016344
0.041066
-0.000383634
-0.00146344
0.0463417
-0.00158275
-0.00174353
0.0563899
-0.00163348
-0.00139162
0.0553868
-0.00198106
-0.00127006
0.0547145
-0.00227399
-0.00128121
0.0540366
-0.0024081
-0.00136214
0.0534855
-0.00246145
-0.00150734
0.0531954
-0.0021927
-0.00178962
0.0527218
-0.00185255
-0.00200417
0.051443
-0.00158967
0.0400646
-0.000192428
0.0366577
-0.00119368
0.0455532
-0.00166984
0.04513
-0.00212741
0.0442912
-0.00237092
0.0434317
-0.00251401
0.0428227
-0.0026666
0.0424679
-0.00253741
0.0418435
-0.00200845
0.0402051
0.0295933
-0.000344974
0.000985682
0.0358472
-0.00120305
0.000927184
0.0453548
-0.00229339
0.00121084
0.044868
-0.00280163
0.0013715
0.0432054
-0.00288513
0.00140124
0.0418607
-0.00287177
0.00139356
0.0411869
-0.00311075
0.00133327
0.0412238
-0.00387671
0.00117588
0.0414716
-0.0033833
0.00111961
0.0387922
0.0014883
0.0250693
0.000116332
0.000809054
0.0462915
-0.000141711
0.000861686
0.056612
-0.00178123
0.00120088
0.0569625
-0.00269233
0.00136164
0.0554862
-0.00287811
0.00137519
0.0540686
-0.00294401
0.00138285
0.0534061
-0.00340991
0.00138173
0.0535131
-0.00433591
0.00114552
0.053717
-0.00358194
0.000790782
0.0511934
0.00150337
0.0368087
0.000259071
0.000598479
0.0468586
0.00020044
0.000734492
0.0572118
-0.0016573
0.000866362
0.0580024
-0.00268247
0.000965039
0.0565935
-0.00284767
0.000983388
0.0550924
-0.00291338
0.000995858
0.054455
-0.00350453
0.00103146
0.0547034
-0.00452528
0.000878501
0.0548932
-0.00327443
0.000556431
0.0517912
0.00102821
0.0386208
0.00046271
0.000419364
0.0464719
0.000462775
0.000499648
0.0570419
-0.00154311
0.000488884
0.0579312
-0.00264862
0.000530527
0.0565165
-0.00280031
0.000544309
0.0549579
-0.00285239
0.00054412
0.0543281
-0.0034783
0.000558614
0.0546602
-0.00456342
0.000524469
0.0549038
-0.00308816
0.000409699
0.051527
0.000508896
0.0388415
0.000575012
0.000131223
0.0463496
0.000596001
0.000203687
0.0569415
-0.00148215
0.00012626
0.0578583
-0.00263069
0.000103401
0.0564534
-0.00278374
9.79961e-05
0.0548791
-0.00283797
8.08119e-05
0.0542518
-0.00349173
6.5789e-05
0.0546052
-0.0046169
0.0001002
0.0548901
-0.00306515
8.6261e-05
0.0515201
-6.48024e-05
0.0388324
0.000593397
-0.000180446
0.0463572
0.000631075
-0.000107076
0.0569466
-0.0014698
-0.000237057
0.0578904
-0.00263567
-0.000325209
0.0564926
-0.0027965
-0.00035056
0.0549142
-0.00285482
-0.000381311
0.0542771
-0.00350721
-0.000427016
0.0546143
-0.00465896
-0.000341167
0.0548992
-0.00311696
-0.000288027
0.051491
-0.000663642
0.038712
0.000523951
-0.000387302
0.0464574
0.000572048
-0.000381158
0.0570595
-0.00150263
-0.000627114
0.0580374
-0.00266115
-0.000772135
0.0566406
-0.00283236
-0.000804065
0.0550645
-0.00289097
-0.000841016
0.054406
-0.00350847
-0.000915849
0.0546976
-0.0046726
-0.000757063
0.0549502
-0.00322779
-0.00056026
0.0514387
-0.00120787
0.0384682
0.000330958
-0.000608445
0.0468351
0.000352255
-0.000591339
0.0572519
-0.00160641
-0.00100397
0.058183
-0.00270768
-0.00120196
0.0567992
-0.00289219
-0.00123154
0.0552681
-0.0029537
-0.00126054
0.054586
-0.003538
-0.00131164
0.0547879
-0.00469685
-0.00111767
0.0549979
-0.00346034
-0.000890924
0.0515977
-0.00160199
0.0379997
0.000172449
-0.000794734
0.0463556
2.7299e-05
-0.00075724
0.056701
-0.0017387
-0.00108982
0.0572386
-0.00274852
-0.00127732
0.0557997
-0.0029757
-0.00131316
0.0543454
-0.0030569
-0.00131598
0.0536221
-0.00355101
-0.00128002
0.0536579
-0.00461886
-0.00112656
0.0537985
-0.00376434
-0.00112164
0.0508192
-0.00145587
0.0361541
-0.000173696
0.0360367
-0.000981773
0.045604
-0.00219981
0.0452582
-0.00285006
0.0436641
-0.003011
0.0422795
-0.00303655
0.0415323
-0.00332396
0.0414753
-0.00415579
0.0415488
-0.00358592
0.0385136
0.0245515
-0.0019858
0.000971475
0.0368615
-0.00323574
0.00137465
0.0452301
-0.00388942
0.00144658
0.0440751
-0.00401362
0.00149041
0.0418392
-0.00367674
0.00144159
0.0400822
-0.00341573
0.001498
0.0394279
-0.00346691
0.00167981
0.0395952
-0.00364133
0.00183536
0.0398106
-0.00294352
0.00183277
0.0362616
0.0014114
0.0207144
-0.0015733
0.000649429
0.0481868
-0.00285922
0.00122413
0.0580484
-0.00352884
0.0013923
0.0576864
-0.00373206
0.00145214
0.0557277
-0.00349037
0.00147257
0.053796
-0.00330042
0.00155778
0.0531564
-0.00327931
0.00164301
0.0535288
-0.0036824
0.00186668
0.0540888
-0.00268694
0.00234966
0.0496811
0.00171293
0.0338202
-0.00150782
0.000466103
0.0485497
-0.00276392
0.000751245
0.0589407
-0.00341824
0.000933297
0.0591157
-0.00368566
0.00102485
0.0572882
-0.00343889
0.00107365
0.0552445
-0.00322569
0.00114219
0.0546574
-0.00316026
0.00116197
0.055119
-0.00346527
0.00128293
0.0557819
-0.00247351
0.00172583
0.0514232
0.00102736
0.0368329
-0.00158235
0.000257076
0.0482632
-0.00280097
0.000329413
0.0586824
-0.0034242
0.00050513
0.0589826
-0.00371037
0.00058514
0.0572424
-0.00345685
0.000616958
0.0551611
-0.00323927
0.000640595
0.0546121
-0.00317741
0.0006188
0.0551415
-0.00337991
0.000563481
0.0558257
-0.00233968
0.000619395
0.0515932
0.000311478
0.0372177
-0.00161318
1.99429e-05
0.0481999
-0.00281995
-7.66437e-05
0.0585543
-0.00341932
8.95004e-05
0.0588733
-0.00372145
0.000150546
0.0571901
-0.00348177
0.000145112
0.0551112
-0.00326715
0.000118139
0.0545597
-0.00320923
5.67931e-05
0.0551093
-0.00337214
-0.00014623
0.0557627
-0.0023496
-0.000380576
0.0514976
-0.000352617
0.0371469
-0.00158862
-0.000210188
0.0481759
-0.00280394
-0.000472088
0.0585574
-0.00340781
-0.00032095
0.0589047
-0.00373214
-0.000283926
0.0572514
-0.00352327
-0.000325209
0.0551757
-0.00333196
-0.000400674
0.0546046
-0.00331387
-0.000492374
0.0551453
-0.00350145
-0.000811521
0.0557521
-0.00242884
-0.0012699
0.0513077
-0.000898639
0.0368292
-0.00151497
-0.000404954
0.0481672
-0.00275854
-0.000857921
0.0586889
-0.00339692
-0.000740485
0.0590953
-0.00374632
-0.000733304
0.0574394
-0.00358455
-0.000790036
0.0553675
-0.00344418
-0.000906704
0.0547716
-0.00348905
-0.00102019
0.0552703
-0.00375226
-0.00139753
0.0557994
-0.00259838
-0.0020258
0.0510407
-0.00133542
0.0363066
-0.00136122
-0.000501974
0.0482934
-0.00267753
-0.0011924
0.0589027
-0.00336406
-0.00119824
0.0593273
-0.00373902
-0.00119528
0.0576362
-0.00364976
-0.00121285
0.0556016
-0.00358286
-0.00133247
0.0549449
-0.00366463
-0.00148734
0.0553368
-0.00403005
-0.00179766
0.0557634
-0.00289326
-0.00223061
0.0506657
-0.00172088
0.0354919
-0.0013787
-0.000792988
0.0480253
-0.00274078
-0.00120831
0.0580789
-0.00343567
-0.00131043
0.0580457
-0.00377338
-0.00132457
0.0562667
-0.00370161
-0.00126706
0.0543279
-0.00368372
-0.00133331
0.0536051
-0.0038451
-0.00153813
0.0538701
-0.00430505
-0.0017514
0.0542123
-0.0032147
-0.00162922
0.0491274
-0.00111273
0.0323313
-0.00195108
0.0371948
-0.00310608
0.0455507
-0.00378622
0.0446279
-0.00405795
0.0426113
-0.00386218
0.0408167
-0.0037648
0.0401016
-0.00403865
0.040211
-0.00437406
0.0401328
-0.00347879
0.0359891
0.01996
-0.00378516
0.00140061
0.0392461
-0.00441796
0.000847508
0.0450154
-0.00554635
0.00163446
0.043569
-0.00509045
0.00170084
0.0396824
-0.00453874
0.00146689
0.0380636
-0.00381414
0.00143676
0.0372666
-0.00297965
0.00165328
0.0371074
-0.00485532
0.0018874
0.0397989
-0.00837549
0.00161475
0.0381671
0.00269654
0.00964239
-0.00323352
0.00119879
0.0516222
-0.00253022
0.00118544
0.0570071
-0.0048351
0.00157018
0.0600555
-0.00487795
0.00168369
0.0557877
-0.00439961
0.00156944
0.0532151
-0.00389451
0.00156075
0.0525273
-0.00326625
0.00175615
0.0527977
-0.0052656
0.00175204
0.0562235
-0.00759834
0.00169553
0.051933
0.00442607
0.0244923
-0.00295687
0.000928866
0.0517765
-0.00189236
0.00110619
0.0579555