/*--------------------------------*- C++ -*----------------------------------*\
| =========                 |                                                 |
| \\      /  F ield         | OpenFOAM: The Open Source CFD Toolbox           |
|  \\    /   O peration     | Version:  1.7.x                                 |
|   \\  /    A nd           | Web:      www.OpenFOAM.com                      |
|    \\/     M anipulation  |                                                 |
\*---------------------------------------------------------------------------*/
FoamFile
{
    version     2.0;
    format      ascii;
    class       volVectorField;
    location    "0.5";
    object      U;
}
// * * * * * * * * * * * * * * * * * * * * * * * * * * * * * * * * * * * * * //

dimensions      [0 1 -1 0 0 0 0];

internalField   nonuniform List<vector> 
8000
(
(4.70918 0.0413046 0.0417337)
(4.83306 0.0409174 0.045216)
(4.89384 0.000306662 0.0430727)
(4.89975 -0.00848055 0.0402422)
(4.90224 -0.00853192 0.0401594)
(4.90111 -0.00901867 0.0396634)
(4.89147 -0.00608059 0.0389106)
(4.85664 -0.00799568 0.0402366)
(4.80117 -0.0453657 0.0458395)
(4.74662 -0.0424986 0.0457436)
(4.71293 0.0337239 0.0655873)
(4.90198 0.030135 0.0773116)
(5.00594 -0.00572195 0.068086)
(5.00481 -0.0168931 0.0583855)
(5.00114 -0.0110262 0.0571079)
(4.9984 -0.00820922 0.0577991)
(4.98058 0.000813608 0.0616957)
(4.90249 0.00285314 0.0710705)
(4.73545 -0.0290035 0.0786939)
(4.67691 -0.0309695 0.0701536)
(4.72406 0.0295872 0.0316443)
(4.92761 0.0349508 0.0412626)
(5.02106 -0.00458262 0.0339567)
(5.00949 -0.0196814 0.0262653)
(5.00234 -0.0126565 0.024944)
(5.00091 -0.0109818 0.0257892)
(4.98943 -0.0020158 0.0299633)
(4.92245 -0.000796361 0.0388133)
(4.73547 -0.0258892 0.0418873)
(4.6257 -0.0261512 0.0316496)
(4.73463 0.0289559 0.0160655)
(4.93511 0.0393346 0.0216362)
(5.02355 -0.00531079 0.0172403)
(5.0097 -0.0209648 0.0132778)
(5.00225 -0.0132431 0.0124875)
(5.00125 -0.0119633 0.0131245)
(4.99238 -0.00323767 0.0158594)
(4.93377 -0.00255278 0.0208363)
(4.74885 -0.0249743 0.0215661)
(4.6187 -0.0252738 0.0141846)
(4.73818 0.028586 0.00441787)
(4.93805 0.0396573 0.00661831)
(5.0242 -0.00680954 0.00524593)
(5.00939 -0.0217531 0.00408182)
(5.00199 -0.0134268 0.00388363)
(5.001 -0.0118154 0.00418863)
(4.99235 -0.00276411 0.00527008)
(4.93565 -0.00192174 0.00664683)
(4.75136 -0.0240403 0.00683239)
(4.61607 -0.0253562 0.00422931)
(4.73854 0.0283669 -0.00582475)
(4.93857 0.039486 -0.00655475)
(5.02444 -0.00699539 -0.00556381)
(5.0096 -0.0218228 -0.0044596)
(5.00219 -0.0133558 -0.00396612)
(5.00145 -0.0115196 -0.00403028)
(4.99318 -0.00211978 -0.0046826)
(4.93731 -0.000852726 -0.00678811)
(4.75319 -0.0230135 -0.00724139)
(4.61559 -0.0254429 -0.00486202)
(4.73561 0.0284187 -0.0172449)
(4.93616 0.0392893 -0.0214263)
(5.02406 -0.00568974 -0.017451)
(5.01031 -0.0211544 -0.0136267)
(5.00286 -0.0130172 -0.0126037)
(5.00266 -0.0110594 -0.0131174)
(4.99501 -0.00119807 -0.0156976)
(4.93881 0.000708449 -0.0212962)
(4.75425 -0.0218649 -0.0221077)
(4.61712 -0.0254759 -0.0145052)
(4.72576 0.0286835 -0.0325853)
(4.92967 0.0347198 -0.041076)
(5.02184 -0.00521572 -0.0340741)
(5.01048 -0.0200725 -0.0265072)
(5.00333 -0.0123514 -0.0251954)
(5.00313 -0.00968634 -0.0262759)
(4.99374 0.00116426 -0.030858)
(4.93014 0.00391605 -0.0404174)
(4.74268 -0.0218294 -0.0428446)
(4.62181 -0.0265037 -0.0309207)
(4.7133 0.0324541 -0.0659467)
(4.90466 0.0285981 -0.0775907)
(5.00681 -0.00720283 -0.0685195)
(5.00582 -0.0178133 -0.0585901)
(5.002 -0.0110624 -0.0574651)
(5.00002 -0.00739172 -0.0586938)
(4.98351 0.00309128 -0.0634368)
(4.90647 0.00555331 -0.0734093)
(4.73493 -0.0273372 -0.0798829)
(4.66744 -0.0313615 -0.0692367)
(4.70673 0.0407876 -0.0414827)
(4.83282 0.0400629 -0.0454087)
(4.89403 -0.000639819 -0.0434363)
(4.89986 -0.00920719 -0.0403995)
(4.90208 -0.00879909 -0.0402844)
(4.90059 -0.008952 -0.0398179)
(4.89008 -0.00563541 -0.0389346)
(4.85283 -0.00787112 -0.0394619)
(4.79341 -0.0453561 -0.0444223)
(4.73981 -0.0424834 -0.0454238)
(4.79474 0.072151 0.0814896)
(4.95631 0.114698 0.0726011)
(4.857 0.0487147 0.0748863)
(4.83929 0.0104692 0.0822509)
(4.83071 -0.0266605 0.0848475)
(4.82882 -0.0548786 0.0865297)
(4.84027 -0.0860437 0.0888851)
(4.89186 -0.120116 0.0875175)
(4.98176 -0.165897 0.0827322)
(4.71914 -0.0950306 0.0769212)
(5.12529 0.0830252 0.105067)
(5.19622 0.146862 0.0807239)
(5.05841 0.0660714 0.0964152)
(5.04949 0.0268087 0.115937)
(5.04739 -0.020778 0.12124)
(5.04658 -0.0541607 0.120533)
(5.06494 -0.0921447 0.11351)
(5.16358 -0.124805 0.0973334)
(5.39186 -0.180092 0.0927349)
(5.15539 -0.111938 0.106067)
(5.08597 0.0891621 0.0470973)
(5.13717 0.14977 0.0284345)
(5.02485 0.0707072 0.0420255)
(5.02744 0.0343272 0.0558809)
(5.02821 -0.0177001 0.0591162)
(5.02584 -0.052253 0.0573417)
(5.03578 -0.0914408 0.0488456)
(5.11239 -0.120708 0.0326451)
(5.3544 -0.181627 0.0310407)
(5.2015 -0.113695 0.0534475)
(5.06081 0.0904442 0.023957)
(5.11937 0.14539 0.0148918)
(5.01667 0.0730914 0.0224408)
(5.01988 0.0375075 0.0289257)
(5.02043 -0.0168145 0.0300684)
(5.01813 -0.0520194 0.0287325)
(5.02579 -0.0916673 0.0236822)
(5.09006 -0.11904 0.0144398)
(5.32438 -0.181718 0.0137926)
(5.19906 -0.112283 0.0289744)
(5.05381 0.0912055 0.00845649)
(5.11356 0.145347 0.00528664)
(5.014 0.0753715 0.0074046)
(5.01765 0.0388202 0.00907103)
(5.01816 -0.0166798 0.00912213)
(5.0161 -0.0526658 0.00839827)
(5.02392 -0.0929909 0.00641507)
(5.08605 -0.119932 0.00361918)
(5.31913 -0.182289 0.00334577)
(5.19956 -0.111219 0.00813341)
(5.05345 0.0916455 -0.00566132)
(5.11265 0.145832 -0.00497372)
(5.0136 0.0755793 -0.00722411)
(5.01728 0.0387101 -0.00896811)
(5.01776 -0.0171097 -0.00988049)
(5.01528 -0.0536342 -0.0100544)
(5.02266 -0.0948809 -0.0094158)
(5.08432 -0.122652 -0.00652472)
(5.31748 -0.184572 -0.00580689)
(5.20053 -0.110844 -0.0106829)
(5.05951 0.0915808 -0.0215406)
(5.11737 0.146045 -0.0148861)
(5.01588 0.0734037 -0.0224718)
(5.01886 0.0372033 -0.0288428)
(5.01926 -0.0180806 -0.0306705)
(5.01566 -0.0549104 -0.0300021)
(5.02203 -0.0973879 -0.025948)
(5.08499 -0.126994 -0.0165457)
(5.31949 -0.188387 -0.0157733)
(5.20203 -0.11124 -0.0314353)
(5.0837 0.0910265 -0.045035)
(5.13356 0.151374 -0.0280984)
(5.02383 0.0713946 -0.0420279)
(5.02583 0.0340913 -0.055821)
(5.02634 -0.0195324 -0.0591746)
(5.02203 -0.0565433 -0.0572698)
(5.02971 -0.100008 -0.0486382)
(5.10394 -0.132103 -0.0313735)
(5.34694 -0.190613 -0.03043)
(5.20719 -0.112018 -0.0557495)
(5.12577 0.0853253 -0.103559)
(5.19195 0.1511 -0.0789439)
(5.05733 0.0683132 -0.0953397)
(5.0478 0.0273681 -0.115638)
(5.04558 -0.0221272 -0.12072)
(5.04336 -0.0575022 -0.119066)
(5.05982 -0.0985807 -0.110644)
(5.15778 -0.132288 -0.0930507)
(5.39172 -0.184927 -0.0903738)
(5.16728 -0.110529 -0.107921)
(4.7991 0.0728327 -0.0815002)
(4.95647 0.116153 -0.0716424)
(4.85666 0.0497891 -0.0738851)
(4.83884 0.010791 -0.0818368)
(4.83043 -0.0273971 -0.0844879)
(4.82872 -0.0562499 -0.0858871)
(4.84123 -0.0878245 -0.0879649)
(4.8965 -0.120932 -0.087493)
(4.9922 -0.16629 -0.0846751)
(4.72831 -0.0953372 -0.0779205)
(4.31773 0.0851957 0.0959452)
(4.73589 0.0882337 0.113093)
(4.79622 0.012378 0.10947)
(4.77491 -0.0264059 0.103117)
(4.75897 -0.0517889 0.100536)
(4.7478 -0.0712486 0.0995184)
(4.73238 -0.083843 0.0986611)
(4.69406 -0.0990814 0.0982157)
(4.62628 -0.149432 0.101065)
(4.33584 -0.10011 0.0978945)
(4.5246 0.0811681 0.163424)
(5.08744 0.0496199 0.195132)
(5.18785 -0.00452532 0.173873)
(5.1507 -0.0385864 0.156351)
(5.12498 -0.0559303 0.152625)
(5.11385 -0.0698042 0.15574)
(5.09668 -0.0777647 0.167927)
(5.02368 -0.0975582 0.186552)
(4.8046 -0.146133 0.191348)
(4.435 -0.0940188 0.156569)
(4.52077 0.0708709 0.0981814)
(5.12302 0.033924 0.118324)
(5.19067 -0.0108941 0.100127)
(5.13408 -0.0432023 0.0874174)
(5.10234 -0.0564288 0.0858982)
(5.09328 -0.0669103 0.0896677)
(5.08738 -0.0712609 0.102063)
(5.04553 -0.0919777 0.122466)
(4.82327 -0.139956 0.127407)
(4.34517 -0.0986259 0.0895787)
(4.52234 0.0670378 0.0530942)
(5.12582 0.0334398 0.0629853)
(5.17983 -0.0134682 0.0543164)
(5.11877 -0.0453947 0.0482869)
(5.08577 -0.0560446 0.0479479)
(5.07653 -0.0644031 0.0502283)
(5.0734 -0.0670772 0.056809)
(5.04616 -0.088946 0.0682857)
(4.83441 -0.137877 0.0717605)
(4.32352 -0.103594 0.0487633)
(4.52077 0.0656339 0.0163471)
(5.12617 0.0320643 0.0195594)
(5.17561 -0.0161113 0.0173681)
(5.11333 -0.0464846 0.0157352)
(5.08004 -0.0557843 0.0157217)
(5.07061 -0.0629872 0.0163985)
(5.06769 -0.0645853 0.0184066)
(5.04271 -0.0867114 0.0216227)
(4.83038 -0.137311 0.0230384)
(4.31181 -0.106328 0.0160428)
(4.52105 0.0649916 -0.0186496)
(5.12764 0.0310624 -0.0198446)
(5.17636 -0.0166431 -0.0170646)
(5.11387 -0.0466448 -0.0155779)
(5.0806 -0.055776 -0.0155155)
(5.07177 -0.0624315 -0.0162514)
(5.06932 -0.0629453 -0.0177797)
(5.04407 -0.0837758 -0.0215407)
(4.82989 -0.134696 -0.0229771)
(4.30925 -0.107204 -0.0163393)
(4.5236 0.065235 -0.0548376)
(5.12953 0.0312284 -0.0627799)
(5.18171 -0.0146936 -0.0537855)
(5.12031 -0.0459089 -0.0480624)
(5.08739 -0.0560167 -0.0477575)
(5.07983 -0.0627055 -0.0502071)
(5.078 -0.0621137 -0.0564022)
(5.04982 -0.0806084 -0.0682323)
(4.83298 -0.130438 -0.0717835)
(4.31622 -0.106142 -0.0492785)
(4.52256 0.0679356 -0.0995487)
(5.12907 0.0296568 -0.118465)
(5.19347 -0.0128686 -0.099534)
(5.13656 -0.0441219 -0.0869686)
(5.10484 -0.0564875 -0.085813)
(5.09803 -0.0645166 -0.0902938)
(5.09422 -0.0639334 -0.102837)
(5.05159 -0.0801717 -0.124516)
(4.82266 -0.129755 -0.130175)
(4.3343 -0.102496 -0.0905364)
(4.52267 0.0779632 -0.165145)
(5.09366 0.0420715 -0.197419)
(5.19088 -0.0084106 -0.174369)
(5.15358 -0.040486 -0.156033)
(5.12761 -0.0567616 -0.15284)
(5.11789 -0.0687633 -0.157377)
(5.10248 -0.0728854 -0.170968)
(5.02788 -0.0895778 -0.191641)
(4.79939 -0.140237 -0.196304)
(4.41782 -0.0975329 -0.15722)
(4.31288 0.0841579 -0.0961489)
(4.73713 0.0848085 -0.114492)
(4.79802 0.00939937 -0.110313)
(4.77643 -0.0288167 -0.103329)
(4.75989 -0.0538084 -0.100888)
(4.74802 -0.0732197 -0.100752)
(4.7308 -0.0856459 -0.101205)
(4.687 -0.101525 -0.100708)
(4.6109 -0.151338 -0.101091)
(4.32073 -0.10073 -0.0976476)
(4.52496 0.0756878 0.085693)
(4.90874 0.124083 0.0789278)
(4.75231 0.0303074 0.0869311)
(4.70219 -0.0237143 0.0963385)
(4.67538 -0.0782366 0.0990394)
(4.6618 -0.120208 0.100346)
(4.67331 -0.160385 0.101911)
(4.75216 -0.192134 0.102024)
(4.88166 -0.225435 0.100329)
(4.29888 -0.120721 0.0925002)
(5.19826 0.0941449 0.106957)
(5.42734 0.198359 0.0926759)
(5.23517 0.0573242 0.123967)
(5.20106 -0.0102333 0.146635)
(5.18517 -0.0748514 0.150233)
(5.1712 -0.123194 0.146298)
(5.18268 -0.171051 0.131674)
(5.30165 -0.201348 0.104932)
(5.61412 -0.245131 0.098247)
(5.1303 -0.137995 0.128872)
(5.14396 0.110918 0.0540099)
(5.33361 0.225413 0.045279)
(5.18679 0.0656591 0.0705986)
(5.1688 -0.00711491 0.0862018)
(5.15666 -0.0760484 0.0874367)
(5.13946 -0.127761 0.0831805)
(5.13843 -0.18216 0.0693482)
(5.21893 -0.215649 0.0417124)
(5.52328 -0.258275 0.0311805)
(5.18409 -0.127104 0.0714105)
(5.09256 0.119285 0.0383492)
(5.28755 0.232081 0.0342125)
(5.1595 0.0692641 0.0449664)
(5.14309 -0.00541081 0.0522111)
(5.13091 -0.0772773 0.0524004)
(5.11367 -0.131223 0.0498537)
(5.11027 -0.188856 0.0428697)
(5.17471 -0.223109 0.0279243)
(5.46259 -0.264488 0.0200987)
(5.16256 -0.119587 0.0429629)
(5.07536 0.122423 0.0166125)
(5.27024 0.236107 0.0152357)
(5.1486 0.0724909 0.0168809)
(5.13284 -0.0042886 0.0185892)
(5.12046 -0.077899 0.0182634)
(5.10307 -0.13321 0.0171289)
(5.09906 -0.192636 0.0147402)
(5.16113 -0.227486 0.0101431)
(5.45048 -0.266999 0.0062515)
(5.15947 -0.116227 0.01182)
(5.07561 0.123256 -0.00835298)
(5.26879 0.237549 -0.00891372)
(5.14805 0.0729407 -0.0133584)
(5.13259 -0.00454396 -0.0159309)
(5.12011 -0.078461 -0.0168351)
(5.1017 -0.134412 -0.0168348)
(5.09691 -0.195098 -0.016058)
(5.1602 -0.231454 -0.0125904)
(5.45285 -0.270786 -0.0117647)
(5.16262 -0.11529 -0.0194218)
(5.09241 0.121732 -0.0315345)
(5.28382 0.235585 -0.0291136)
(5.15828 0.0702463 -0.0418763)
(5.14241 -0.00610406 -0.0497711)
(5.12995 -0.0789611 -0.0510849)
(5.10985 -0.134907 -0.0495848)
(5.10434 -0.196328 -0.0444258)
(5.17264 -0.234204 -0.0311272)
(5.4695 -0.275101 -0.0259621)
(5.17139 -0.116807 -0.0494004)
(5.1446 0.114838 -0.0480001)
(5.32803 0.231697 -0.040142)
(5.18525 0.0669951 -0.0676616)
(5.16767 -0.00832568 -0.0841348)
(5.15514 -0.0788727 -0.0860609)
(5.13411 -0.133713 -0.0822817)
(5.13001 -0.194053 -0.0703335)
(5.21531 -0.232404 -0.0434009)
(5.53062 -0.273866 -0.0333283)
(5.19564 -0.12279 -0.0749335)
(5.20553 0.0981456 -0.101095)
(5.42302 0.208196 -0.0864508)
(5.23429 0.0599511 -0.120895)
(5.20011 -0.0114363 -0.145393)
(5.18383 -0.0781421 -0.149043)
(5.16661 -0.129376 -0.144537)
(5.17461 -0.182552 -0.130253)
(5.29736 -0.217269 -0.102295)
(5.62147 -0.258184 -0.0953095)
(5.14531 -0.13432 -0.130237)
(4.53515 0.0768316 -0.0837183)
(4.90999 0.128607 -0.0759715)
(4.75374 0.0320748 -0.0851819)
(4.70361 -0.0242312 -0.0956781)
(4.67671 -0.0804926 -0.0982483)
(4.66236 -0.123385 -0.0984919)
(4.67379 -0.163964 -0.0981513)
(4.75811 -0.194436 -0.0978146)
(4.89636 -0.227171 -0.0997435)
(4.31074 -0.121578 -0.0933185)
(3.77108 0.0733774 0.0996715)
(4.57082 0.0341848 0.121985)
(4.67283 -0.0393053 0.111862)
(4.621 -0.0840245 0.101829)
(4.58138 -0.115445 0.0991453)
(4.55532 -0.137536 0.0999605)
(4.52967 -0.146493 0.101352)
(4.46662 -0.150086 0.101382)
(4.29629 -0.172719 0.102795)
(3.69135 -0.103718 0.0978976)
(4.19555 0.0738874 0.180325)
(5.25002 -0.0333878 0.214902)
(5.3927 -0.0560972 0.178556)
(5.31754 -0.088555 0.156399)
(5.2695 -0.115649 0.153699)
(5.24907 -0.133759 0.161062)
(5.2326 -0.138642 0.181137)
(5.1494 -0.144375 0.214762)
(4.78367 -0.166493 0.230191)
(3.97337 -0.103865 0.170786)
(4.2103 0.0566149 0.119216)
(5.32819 -0.0730419 0.140254)
(5.42146 -0.0682588 0.11088)
(5.32306 -0.091307 0.0952377)
(5.27162 -0.112559 0.0943614)
(5.25678 -0.123614 0.10053)
(5.25421 -0.117466 0.116945)
(5.21739 -0.112326 0.15173)
(4.87482 -0.138145 0.174476)
(3.89533 -0.123404 0.114404)
(4.21226 0.0464165 0.0637906)
(5.33335 -0.0869862 0.0762009)
(5.40327 -0.0744594 0.0657872)
(5.29949 -0.0938829 0.0586591)
(5.24799 -0.11119 0.0584657)
(5.23401 -0.117961 0.0613825)
(5.23374 -0.106355 0.0683633)
(5.21485 -0.0975801 0.0857665)
(4.893 -0.126565 0.100239)
(3.87229 -0.136174 0.0669395)
(4.20861 0.0427654 0.0191251)
(5.33228 -0.0931558 0.022739)
(5.39394 -0.0781615 0.0226166)
(5.28854 -0.0952822 0.0210444)
(5.23716 -0.111143 0.0207898)
(5.22363 -0.116323 0.021004)
(5.22435 -0.102447 0.0217811)
(5.20848 -0.0922252 0.0253613)
(4.88403 -0.123666 0.0304456)
(3.85203 -0.141613 0.0225205)
(4.20805 0.0418148 -0.0219433)
(5.33433 -0.0955459 -0.0248177)
(5.39534 -0.0793354 -0.0196161)
(5.28953 -0.0958172 -0.0174519)
(5.23805 -0.111918 -0.0179826)
(5.22531 -0.116987 -0.0200463)
(5.22626 -0.102419 -0.0232354)
(5.20699 -0.0911106 -0.0293698)
(4.87454 -0.121407 -0.03298)
(3.84264 -0.14342 -0.022291)
(4.21178 0.0435148 -0.0649583)
(5.33915 -0.0935023 -0.0770497)
(5.40721 -0.0776702 -0.0628324)
(5.30244 -0.0955464 -0.0552225)
(5.25062 -0.1134 -0.0556926)
(5.2387 -0.119682 -0.0601662)
(5.23882 -0.10587 -0.0684581)
(5.20975 -0.0949014 -0.0870067)
(4.86549 -0.120513 -0.100155)
(3.84614 -0.141489 -0.0668026)
(4.2069 0.0522929 -0.120104)
(5.33635 -0.0838397 -0.141624)
(5.42742 -0.0726785 -0.108375)
(5.32798 -0.0935269 -0.0918343)
(5.27605 -0.115541 -0.0915093)
(5.26361 -0.125716 -0.0990488)
(5.26101 -0.115779 -0.114916)
(5.20977 -0.107347 -0.150599)
(4.83846 -0.128505 -0.175268)
(3.86151 -0.131742 -0.11615)
(4.18395 0.0702613 -0.183314)
(5.25792 -0.0471755 -0.218703)
(5.39997 -0.0612537 -0.177228)
(5.32423 -0.0909089 -0.153434)
(5.27584 -0.118882 -0.151354)
(5.25697 -0.136449 -0.16002)
(5.24036 -0.137335 -0.179462)
(5.14379 -0.137624 -0.215459)
(4.75345 -0.158026 -0.234534)
(3.9398 -0.112602 -0.173332)
(3.76375 0.0715874 -0.100985)
(4.5758 0.0263382 -0.124359)
(4.67916 -0.0438771 -0.111641)
(4.62712 -0.088147 -0.100729)
(4.58693 -0.120411 -0.0986549)
(4.55971 -0.144197 -0.101574)
(4.53053 -0.154744 -0.106924)
(4.4555 -0.159562 -0.10995)
(4.26792 -0.179751 -0.107163)
(3.66122 -0.106558 -0.0988193)
(4.2657 0.0450055 0.0701864)
(4.80324 0.0858412 0.0649992)
(4.60651 -0.0495025 0.0837175)
(4.53177 -0.102509 0.093769)
(4.48039 -0.15521 0.0969069)
(4.44407 -0.195963 0.0961426)
(4.44017 -0.23154 0.0936251)
(4.52484 -0.252535 0.0949788)
(4.66413 -0.277689 0.1009)
(3.73268 -0.143528 0.093655)
(5.34111 0.0520452 0.0893202)
(5.64092 0.190685 0.0856626)
(5.39444 -0.0124638 0.127576)
(5.34673 -0.0924715 0.149202)
(5.31119 -0.15271 0.152944)
(5.27296 -0.202265 0.148121)
(5.26204 -0.248992 0.130198)
(5.37977 -0.280324 0.0936432)
(5.76662 -0.316505 0.0760192)
(5.04529 -0.154052 0.126128)
(5.35299 0.0643936 0.0446351)
(5.58462 0.23569 0.0488029)
(5.38193 0.00163163 0.079488)
(5.35625 -0.091149 0.0953751)
(5.32563 -0.15404 0.0977061)
(5.28113 -0.208759 0.0946751)
(5.25726 -0.267236 0.0832571)
(5.32957 -0.315286 0.0478663)
(5.68216 -0.347346 0.016523)
(5.17597 -0.118049 0.0660763)
(5.2955 0.0768533 0.0427833)
(5.5282 0.259039 0.0432829)
(5.34872 0.0108808 0.0532627)
(5.32906 -0.0881829 0.0613056)
(5.29935 -0.153972 0.0625916)
(5.25317 -0.211966 0.0612328)
(5.22704 -0.275895 0.057141)
(5.28408 -0.329194 0.040978)
(5.61305 -0.35946 0.0225368)
(5.15531 -0.10034 0.044083)
(5.2731 0.0818375 0.0237213)
(5.50462 0.269888 0.0243676)
(5.33401 0.0158352 0.0225974)
(5.31684 -0.0865998 0.0239597)
(5.28754 -0.15372 0.0240078)
(5.24063 -0.213246 0.0232952)
(5.21302 -0.27985 0.0224825)
(5.26797 -0.335327 0.018802)
(5.60211 -0.364056 0.0113926)
(5.15676 -0.0947436 0.0122966)
(5.2756 0.0824452 -0.00550065)
(5.50413 0.272935 -0.00466601)
(5.33372 0.0171679 -0.0116372)
(5.31733 -0.0867544 -0.0155599)
(5.28837 -0.154056 -0.0167039)
(5.24023 -0.214086 -0.0170234)
(5.21151 -0.281289 -0.016655)
(5.2707 -0.336629 -0.0131583)
(5.6144 -0.367004 -0.0129938)
(5.16521 -0.0939511 -0.0248506)
(5.30137 0.0791347 -0.0281634)
(5.52668 0.267979 -0.026288)
(5.34792 0.0147754 -0.0429444)
(5.33038 -0.0884448 -0.0534429)
(5.30173 -0.154986 -0.0558524)
(5.25227 -0.214599 -0.0556162)
(5.22334 -0.280369 -0.053241)
(5.29303 -0.332149 -0.0388395)
(5.6485 -0.367201 -0.0276948)
(5.17829 -0.0979645 -0.0553979)
(5.36746 0.0671198 -0.0310965)
(5.58501 0.249768 -0.0326324)
(5.3815 0.00667664 -0.0695032)
(5.35816 -0.0922922 -0.0883758)
(5.32895 -0.156431 -0.0918994)
(5.2802 -0.213696 -0.0899295)
(5.25298 -0.275453 -0.0826314)
(5.34384 -0.321936 -0.050521)
(5.72979 -0.360985 -0.0232487)
(5.20155 -0.113661 -0.0727867)
(5.37147 0.0530247 -0.0766575)
(5.6457 0.207035 -0.0728077)
(5.39649 -0.0083347 -0.120202)
(5.35042 -0.0954493 -0.144857)
(5.3154 -0.157475 -0.149361)
(5.27252 -0.210497 -0.145663)
(5.25688 -0.262415 -0.132667)
(5.39028 -0.297801 -0.0976668)
(5.80114 -0.336033 -0.0785483)
(5.06085 -0.148256 -0.127738)
(4.29 0.0467766 -0.0638405)
(4.80971 0.0977742 -0.0593367)
(4.61294 -0.0451215 -0.0810843)
(4.54026 -0.103715 -0.0922664)
(4.48926 -0.159551 -0.0950174)
(4.44994 -0.202931 -0.0924991)
(4.44146 -0.238905 -0.0856585)
(4.53154 -0.258252 -0.0825209)
(4.68227 -0.283251 -0.093878)
(3.74233 -0.145728 -0.0925013)
(3.17598 0.0515751 0.102567)
(4.37298 -0.067936 0.127925)
(4.53878 -0.134538 0.105119)
(4.44596 -0.186006 0.098089)
(4.37105 -0.217039 0.0976247)
(4.32666 -0.23248 0.102382)
(4.29333 -0.240646 0.110646)
(4.17949 -0.23937 0.113745)
(3.79917 -0.212938 0.109896)
(2.87623 -0.109135 0.100318)
(3.706 0.0916938 0.168316)
(5.35247 -0.139248 0.204538)
(5.5701 -0.14209 0.167255)
(5.45341 -0.169441 0.154467)
(5.37269 -0.207003 0.155958)
(5.33874 -0.226431 0.163259)
(5.32318 -0.232884 0.179754)
(5.20067 -0.215608 0.220684)
(4.56766 -0.186265 0.260503)
(3.22355 -0.120799 0.185456)
(3.70373 0.0887557 0.11682)
(5.45855 -0.192467 0.131143)
(5.64603 -0.153183 0.106999)
(5.51253 -0.164907 0.0998927)
(5.42987 -0.202344 0.101859)
(5.40506 -0.219144 0.106478)
(5.40301 -0.215283 0.114503)
(5.32799 -0.173098 0.152897)
(4.73469 -0.137965 0.206787)
(3.16183 -0.167636 0.142534)
(3.7015 0.0760171 0.0592866)
(5.46801 -0.221429 0.0728789)
(5.63502 -0.162171 0.0681828)
(5.49531 -0.166145 0.0652303)
(5.41177 -0.202548 0.0661771)
(5.38987 -0.21771 0.0679915)
(5.39141 -0.209227 0.0694794)
(5.33382 -0.15746 0.0846706)
(4.76374 -0.118476 0.112166)
(3.14755 -0.190068 0.0809217)
(3.69906 0.071117 0.0157629)
(5.46825 -0.23268 0.0198794)
(5.62712 -0.165674 0.0259095)
(5.48547 -0.166687 0.0265683)
(5.40139 -0.203634 0.0264851)
(5.37987 -0.218645 0.0257177)
(5.3824 -0.20833 0.0227203)
(5.32729 -0.153455 0.0204649)
(4.75223 -0.113365 0.0243548)
(3.12425 -0.196491 0.0203784)
(3.69496 0.0712571 -0.0173959)
(5.46943 -0.235582 -0.0259462)
(5.62962 -0.166834 -0.0173501)
(5.48777 -0.167113 -0.014219)
(5.40303 -0.20543 -0.0154755)
(5.38143 -0.221639 -0.0189985)
(5.38292 -0.212692 -0.0252332)
(5.31973 -0.160578 -0.0386095)
(4.72684 -0.11577 -0.0495745)
(3.1009 -0.197844 -0.0343253)
(3.69065 0.075599 -0.0573112)
(5.47181 -0.230594 -0.0770463)
(5.64275 -0.165915 -0.0604494)
(5.50243 -0.167665 -0.0537856)
(5.41678 -0.207794 -0.0558474)
(5.39433 -0.226493 -0.0614397)
(5.39277 -0.221723 -0.069683)
(5.31179 -0.178217 -0.0965337)
(4.69133 -0.125929 -0.126776)
(3.08375 -0.194048 -0.0888779)
(3.67747 0.090068 -0.114444)
(5.46057 -0.206952 -0.134712)
(5.65781 -0.157968 -0.100244)
(5.5247 -0.166622 -0.0894267)
(5.43925 -0.209777 -0.0919599)
(5.41311 -0.232631 -0.0996548)
(5.40581 -0.23426 -0.110198)
(5.29519 -0.201658 -0.153418)
(4.63213 -0.147154 -0.206956)
(3.08083 -0.176044 -0.144352)
(3.66684 0.0969908 -0.167796)
(5.35668 -0.155196 -0.205312)
(5.58547 -0.145337 -0.161402)
(5.47068 -0.169771 -0.146089)
(5.38879 -0.214005 -0.147748)
(5.35391 -0.240125 -0.155822)
(5.33269 -0.25112 -0.169744)
(5.17342 -0.235576 -0.211286)
(4.48339 -0.192376 -0.253673)
(3.16294 -0.136826 -0.18534)
(3.16495 0.0510383 -0.104463)
(4.38789 -0.0810088 -0.128401)
(4.55731 -0.13845 -0.101911)
(4.46594 -0.188385 -0.0942645)
(4.39081 -0.224941 -0.0946033)
(4.34478 -0.248127 -0.101658)
(4.30622 -0.265345 -0.115974)
(4.16872 -0.268282 -0.127571)
(3.75255 -0.234006 -0.119212)
(2.82228 -0.119124 -0.102588)
(4.30614 -0.0447931 0.0620245)
(4.76153 -0.0108554 0.0593296)
(4.473 -0.198426 0.0892231)
(4.34819 -0.252464 0.0978125)
(4.24976 -0.283247 0.100347)
(4.182 -0.296204 0.0979585)
(4.16952 -0.310242 0.0882172)
(4.27368 -0.334734 0.0872009)
(4.44815 -0.396975 0.109052)
(3.17127 -0.216049 0.110953)
(5.7449 -0.0821767 0.118365)
(5.87411 0.116611 0.110288)
(5.54376 -0.135537 0.14303)
(5.45876 -0.234503 0.161247)
(5.38333 -0.274329 0.164272)
(5.31796 -0.298693 0.165082)
(5.29649 -0.326001 0.161138)
(5.42857 -0.376493 0.132724)
(5.92717 -0.447144 0.102716)
(5.06953 -0.205096 0.174994)
(5.88932 -0.0985127 0.0636413)
(5.91864 0.166107 0.0803891)
(5.59957 -0.113908 0.100121)
(5.53305 -0.231246 0.112588)
(5.46256 -0.27014 0.114313)
(5.39346 -0.293754 0.115376)
(5.36747 -0.324811 0.11859)
(5.46283 -0.393916 0.0947004)
(5.90416 -0.469502 0.0502592)
(5.37788 -0.127911 0.112971)
(5.8524 -0.0908929 0.0523465)
(5.87694 0.202142 0.0615066)
(5.57226 -0.0958863 0.0672505)
(5.51546 -0.225969 0.0747714)
(5.44683 -0.265736 0.0762811)
(5.37635 -0.287758 0.0766507)
(5.35001 -0.318846 0.0794779)
(5.43486 -0.393878 0.0722155)
(5.85087 -0.472903 0.0529975)
(5.38638 -0.0942774 0.0784791)
(5.83441 -0.086842 0.0311495)
(5.85528 0.220267 0.0372552)
(5.55814 -0.086601 0.0315867)
(5.50623 -0.223287 0.0323701)
(5.43899 -0.263834 0.0325715)
(5.36886 -0.285976 0.0314342)
(5.34275 -0.318712 0.0315018)
(5.42758 -0.396646 0.0332406)
(5.85151 -0.477116 0.0299705)
(5.39976 -0.0867799 0.0269328)
(5.84212 -0.0877349 -0.00413578)
(5.85759 0.224592 0.0041553)
(5.55933 -0.0840735 -0.00600584)
(5.50873 -0.223402 -0.0117809)
(5.44245 -0.264497 -0.0131635)
(5.37207 -0.287799 -0.0153266)
(5.34552 -0.321541 -0.0178792)
(5.43643 -0.396893 -0.0120075)
(5.87386 -0.481465 -0.0116101)
(5.41152 -0.0915527 -0.0386184)
(5.87298 -0.0925049 -0.030117)
(5.88335 0.215624 -0.0238908)
(5.57547 -0.0878921 -0.0426172)
(5.52257 -0.225988 -0.0551295)
(5.45697 -0.267499 -0.05786)
(5.3861 -0.29209 -0.060991)
(5.35838 -0.325699 -0.0670154)
(5.46026 -0.393518 -0.0548634)
(5.9135 -0.483892 -0.0435722)
(5.41487 -0.107761 -0.0935751)
(5.93557 -0.104316 -0.0405983)
(5.93603 0.186458 -0.0457283)
(5.6072 -0.103054 -0.0779857)
(5.54471 -0.231914 -0.0952541)
(5.47834 -0.273256 -0.0984532)
(5.40874 -0.298818 -0.101345)
(5.37998 -0.332346 -0.108561)
(5.5013 -0.394111 -0.086901)
(5.99402 -0.486264 -0.0573052)
(5.39902 -0.143967 -0.129592)
(5.82009 -0.0938743 -0.0998248)
(5.90036 0.139067 -0.0898708)
(5.55941 -0.126514 -0.128276)
(5.47792 -0.237247 -0.149537)
(5.40425 -0.281186 -0.153906)
(5.33552 -0.309932 -0.157091)
(5.3084 -0.341316 -0.160281)
(5.46493 -0.390728 -0.140322)
(5.9962 -0.472959 -0.120366)
(5.05068 -0.209895 -0.182598)
(4.35761 -0.0424308 -0.0500746)
(4.77902 0.0164015 -0.0507868)
(4.4967 -0.185344 -0.0836036)
(4.37955 -0.252598 -0.0930622)
(4.28185 -0.291405 -0.0954399)
(4.20813 -0.312597 -0.0931209)
(4.18313 -0.330202 -0.0808452)
(4.28499 -0.355867 -0.0721427)
(4.46524 -0.420514 -0.0981718)
(3.16097 -0.226046 -0.10563)
(2.65996 -0.0169857 0.0854777)
(4.23799 -0.296437 0.125999)
(4.41076 -0.354782 0.101353)
(4.23599 -0.389516 0.102852)
(4.10212 -0.388314 0.102117)
(4.03929 -0.350507 0.108144)
(4.03318 -0.355994 0.128168)
(3.92276 -0.407672 0.135444)
(3.17677 -0.327781 0.10851)
(1.74592 -0.136074 0.0951918)
(3.22182 0.112003 0.0854096)
(5.4666 -0.328333 0.163197)
(5.73495 -0.321987 0.165374)
(5.54589 -0.336526 0.169955)
(5.40058 -0.360995 0.171331)
(5.34178 -0.341002 0.177037)
(5.35226 -0.355741 0.183311)
(5.23189 -0.379008 0.201617)
(4.16987 -0.286278 0.243314)
(1.96991 -0.152808 0.160149)
(3.11922 0.155441 0.0622027)
(5.5552 -0.351231 0.0859876)
(5.86912 -0.303832 0.110011)
(5.6788 -0.321133 0.120714)
(5.52696 -0.354949 0.124416)
(5.47197 -0.335457 0.132382)
(5.49256 -0.354481 0.136255)
(5.40982 -0.360585 0.155579)
(4.39693 -0.230823 0.215012)
(1.94546 -0.227103 0.141443)
(3.0693 0.162312 0.0387339)
(5.55123 -0.369266 0.0544593)
(5.87186 -0.302015 0.0743675)
(5.67524 -0.319102 0.0818947)
(5.51746 -0.356587 0.0845932)
(5.46263 -0.336669 0.0893926)
(5.48701 -0.358981 0.0908715)
(5.41692 -0.360055 0.0946885)
(4.43036 -0.208725 0.116618)
(1.96613 -0.254681 0.0755591)
(3.06057 0.16531 0.0119271)
(5.55077 -0.3772 0.013478)
(5.87031 -0.301519 0.0322728)
(5.67093 -0.317657 0.0383242)
(5.51064 -0.358208 0.0388918)
(5.4547 -0.339355 0.0390364)
(5.47875 -0.362769 0.0358345)
(5.40767 -0.362386 0.0229997)
(4.41606 -0.204695 0.00969054)
(1.94391 -0.26126 -0.00384418)
(3.05 0.169596 -0.00783118)
(5.54982 -0.377018 -0.0282697)
(5.87535 -0.299738 -0.0129264)
(5.67649 -0.316829 -0.00738326)
(5.51501 -0.360666 -0.00937224)
(5.45755 -0.344954 -0.014538)
(5.4793 -0.370859 -0.0232731)
(5.39725 -0.376603 -0.0509236)
(4.37862 -0.214557 -0.0841185)
(1.9016 -0.258414 -0.0658878)
(3.03405 0.174441 -0.0319313)
(5.54874 -0.369424 -0.0677889)
(5.88819 -0.297154 -0.0563819)
(5.69285 -0.317013 -0.0527771)
(5.53094 -0.364038 -0.0565018)
(5.47126 -0.354441 -0.066308)
(5.48965 -0.384464 -0.0779885)
(5.38874 -0.400965 -0.115537)
(4.32405 -0.237979 -0.168028)
(1.84776 -0.247479 -0.122017)
(3.04153 0.179052 -0.0519342)
(5.5432 -0.349601 -0.0929359)
(5.89477 -0.293888 -0.0924963)
(5.709 -0.3175 -0.0943449)
(5.55116 -0.366353 -0.0979583)
(5.48797 -0.365598 -0.110397)
(5.50074 -0.39924 -0.122948)
(5.37178 -0.423579 -0.1609)
(4.23957 -0.276816 -0.221956)
(1.79036 -0.224149 -0.148066)
(3.1262 0.145012 -0.0661486)
(5.46095 -0.327469 -0.150888)
(5.77227 -0.307937 -0.149314)
(5.5913 -0.329741 -0.150055)
(5.44238 -0.371678 -0.150594)
(5.37611 -0.371566 -0.158826)
(5.37768 -0.406255 -0.168306)
(5.20431 -0.449321 -0.186043)
(4.02692 -0.337677 -0.212456)
(1.86821 -0.175786 -0.143325)
(2.63927 -0.00410698 -0.0774739)
(4.27394 -0.30333 -0.116788)
(4.46423 -0.343974 -0.0934675)
(4.29648 -0.381821 -0.0938274)
(4.16005 -0.397655 -0.0927938)
(4.09364 -0.376852 -0.0981943)
(4.08357 -0.406496 -0.118921)
(3.93343 -0.475621 -0.134414)
(3.11438 -0.384944 -0.107384)
(1.65573 -0.170074 -0.086011)
(4.77408 -0.30302 0.092487)
(4.83835 -0.309738 0.0350228)
(4.31345 -0.503638 0.103413)
(4.07256 -0.548912 0.112678)
(3.93358 -0.505214 0.101551)
(3.84591 -0.415218 0.0994398)
(3.8185 -0.317658 0.0984581)
(4.00827 -0.369753 0.10578)
(4.42463 -0.729987 0.135115)
(2.82151 -0.62188 0.208261)
(6.3513 -0.392828 0.195655)
(6.15779 -0.132026 0.12625)
(5.67121 -0.363092 0.176764)
(5.47935 -0.504865 0.18997)
(5.35845 -0.488002 0.175008)
(5.27851 -0.409778 0.174072)
(5.2648 -0.342451 0.19777)
(5.47352 -0.439145 0.215004)
(6.21925 -0.715082 0.189723)
(5.411 -0.466873 0.423496)
(6.66927 -0.457601 0.0997372)
(6.35295 -0.0734167 0.128373)
(5.83064 -0.32042 0.142331)
(5.63553 -0.503405 0.14442)
(5.51401 -0.486763 0.13465)
(5.4401 -0.394172 0.13086)
(5.44554 -0.316882 0.144918)
(5.64542 -0.440237 0.149439)
(6.28237 -0.688776 0.126876)
(6.02007 -0.275816 0.348649)
(6.6876 -0.47139 0.0614815)
(6.35971 -0.0247032 0.0946386)
(5.82454 -0.291904 0.0971977)
(5.63063 -0.502468 0.0999261)
(5.51047 -0.486452 0.0967388)
(5.43886 -0.385124 0.0939374)
(5.45198 -0.300976 0.0978314)
(5.65834 -0.427125 0.0989296)
(6.26347 -0.669754 0.101176)
(6.05177 -0.213147 0.189756)
(6.68119 -0.473568 0.0336129)
(6.34996 0.00256855 0.0570877)
(5.81573 -0.275399 0.0500921)
(5.6257 -0.500056 0.0496263)
(5.50716 -0.485653 0.0491444)
(5.43531 -0.382149 0.0460859)
(5.44826 -0.299547 0.0412331)
(5.65909 -0.429659 0.0403417)
(6.27347 -0.676481 0.0471705)
(6.06506 -0.208487 0.0493773)
(6.69515 -0.476695 -0.00589536)
(6.35745 0.0107979 0.0164334)
(5.82138 -0.269518 0.00479298)
(5.63246 -0.499877 -0.0021506)
(5.51474 -0.486957 -0.00306307)
(5.44243 -0.383882 -0.00681237)
(5.45283 -0.307082 -0.0182128)
(5.66394 -0.441338 -0.0184109)
(6.2921 -0.695374 -0.0194163)
(6.06595 -0.236372 -0.100621)
(6.72926 -0.479454 -0.0369767)
(6.38274 0.00166951 -0.0246363)
(5.84229 -0.273843 -0.0440368)
(5.65152 -0.502047 -0.0540635)
(5.53388 -0.490358 -0.0529099)