/*--------------------------------*- C++ -*----------------------------------*\
| =========                 |                                                 |
| \\      /  F ield         | OpenFOAM: The Open Source CFD Toolbox           |
|  \\    /   O peration     | Version:  1.7.x                                 |
|   \\  /    A nd           | Web:      www.OpenFOAM.com                      |
|    \\/     M anipulation  |                                                 |
\*---------------------------------------------------------------------------*/
FoamFile
{
    version     2.0;
    format      ascii;
    class       volScalarField;
    location    "0.3";
    object      alpha1;
}
// * * * * * * * * * * * * * * * * * * * * * * * * * * * * * * * * * * * * * //

dimensions      [0 -3 0 0 1 0 0];

internalField   nonuniform List<scalar> 
8000
(
3.64992e-15
-2.3713e-14
1.06008e-13
5.32646e-13
1.50268e-11
6.10477e-11
5.88192e-11
-2.73406e-11
4.51978e-12
-7.18529e-14
-1.15669e-13
7.57555e-13
-4.09824e-12
-2.24469e-11
-5.96798e-10
-2.33733e-09
-2.1278e-09
1.00743e-09
-1.84498e-10
5.64132e-12
-2.29195e-13
1.31839e-12
-6.51171e-12
-3.04363e-11
-8.87305e-10
-3.48994e-09
-3.08261e-09
1.56736e-09
-2.78715e-10
1.02145e-11
-2.23165e-13
1.23306e-12
-6.41706e-12
-3.32281e-11
-8.87834e-10
-3.44336e-09
-3.02174e-09
1.50004e-09
-2.84347e-10
1.19293e-11
-2.20628e-13
1.19605e-12
-6.45368e-12
-3.55075e-11
-8.98764e-10
-3.46427e-09
-3.04979e-09
1.46742e-09
-2.93784e-10
1.32172e-11
-2.37776e-13
1.28098e-12
-6.85298e-12
-3.73105e-11
-9.4802e-10
-3.67252e-09
-3.26975e-09
1.52489e-09
-3.12078e-10
1.45203e-11
-2.77005e-13
1.50214e-12
-7.64049e-12
-3.83422e-11
-1.0379e-09
-4.08462e-09
-3.70515e-09
1.66814e-09
-3.46702e-10
1.64808e-11
-3.25803e-13
1.81609e-12
-8.66802e-12
-3.83408e-11
-1.14759e-09
-4.62043e-09
-4.30223e-09
1.84755e-09
-3.91381e-10
1.84617e-11
-2.04943e-13
1.28788e-12
-6.544e-12
-3.24432e-11
-9.1359e-10
-3.70328e-09
-3.60743e-09
1.36394e-09
-2.68932e-10
9.6614e-12
6.17106e-15
-3.84749e-14
1.56746e-13
6.55632e-13
2.09588e-11
8.86283e-11
9.07807e-11
-3.43426e-11
6.4744e-12
-1.29415e-13
-2.33259e-14
1.41311e-13
-6.08874e-13
-2.87189e-12
-7.88095e-11
-3.08123e-10
-2.75825e-10
1.48984e-10
-2.99471e-11
9.42648e-13
7.31285e-13
-4.42811e-12
2.27262e-11
1.16155e-10
3.0792e-09
1.16171e-08
9.76254e-09
-5.35461e-09
1.14412e-09
-4.91028e-11
1.47573e-12
-7.80031e-12
3.64677e-11
1.57809e-10
4.61474e-09
1.75039e-08
1.42619e-08
-8.32899e-09
1.71629e-09
-8.66295e-11
1.43727e-12
-7.28506e-12
3.58575e-11
1.73091e-10
4.6163e-09
1.72562e-08
1.39704e-08
-7.93884e-09
1.73141e-09
-9.52798e-11
1.41687e-12
-7.04022e-12
3.59448e-11
1.85254e-10
4.66523e-09
1.73237e-08
1.40752e-08
-7.74767e-09
1.77828e-09
-1.02311e-10
1.52483e-12
-7.52607e-12
3.81148e-11
1.94446e-10
4.91468e-09
1.83418e-08
1.50829e-08
-8.05776e-09
1.89013e-09
-1.1167e-10
1.77708e-12
-8.82912e-12
4.25234e-11
1.991e-10
5.37756e-09
2.0398e-08
1.71122e-08
-8.84606e-09
2.11219e-09
-1.27754e-10
2.08846e-12
-1.06759e-11
4.8305e-11
1.97965e-10
5.94328e-09
2.308e-08
1.99149e-08
-9.85078e-09
2.40846e-09
-1.45991e-10
1.29789e-12
-7.52124e-12
3.62999e-11
1.67563e-10
4.71598e-09
1.84318e-08
1.66859e-08
-7.33977e-09
1.69775e-09
-8.33981e-11
-3.94308e-14
2.28749e-13
-8.97317e-13
-3.50109e-12
-1.09378e-10
-4.45687e-10
-4.26523e-10
1.88771e-10
-4.33769e-11
1.60664e-12
1.14733e-13
-6.20939e-13
2.6721e-12
1.16284e-11
3.09551e-10
1.16394e-09
9.60318e-10
-5.9416e-10
1.38024e-10
-6.19816e-12
-3.54928e-12
1.9463e-11
-1.03859e-10
-4.89301e-10
-1.2614e-08
-4.58877e-08
-3.55334e-08
2.16673e-08
-5.03775e-09
2.76512e-10
-7.27411e-12
3.47585e-11
-1.68589e-10
-6.6883e-10
-1.90762e-08
-6.98891e-08
-5.25734e-08
3.37565e-08
-7.46954e-09
4.86227e-10
-7.09047e-12
3.24239e-11
-1.66135e-10
-7.36556e-10
-1.90998e-08
-6.89102e-08
-5.15227e-08
3.2027e-08
-7.46491e-09
5.16424e-10
-6.96986e-12
3.11852e-11
-1.66325e-10
-7.89105e-10
-1.92719e-08
-6.90255e-08
-5.18043e-08
3.11393e-08
-7.63505e-09
5.43426e-10
-7.48579e-12
3.32513e-11
-1.7601e-10
-8.27389e-10
-2.02663e-08
-7.29418e-08
-5.54433e-08
3.23739e-08
-8.12396e-09
5.9072e-10
-8.7177e-12
3.90139e-11
-1.95896e-10
-8.44785e-10
-2.21387e-08
-8.10211e-08
-6.29104e-08
3.56258e-08
-9.13402e-09
6.80186e-10
-1.02237e-11
4.71345e-11
-2.21655e-10
-8.36196e-10
-2.44138e-08
-9.15399e-08
-7.32485e-08
3.98058e-08
-1.05171e-08
7.87905e-10
-6.29676e-12
3.296e-11
-1.65422e-10
-7.05881e-10
-1.93024e-08
-7.27771e-08
-6.11452e-08
2.98549e-08
-7.57791e-09
4.67634e-10
1.93382e-13
-9.99995e-13
3.88502e-12
1.37926e-11
4.23229e-10
1.66168e-09
1.47529e-09
-7.5082e-10
2.01154e-10
-1.03744e-11
-5.63071e-13
2.55516e-12
-1.06139e-11
-4.19694e-11
-1.11117e-09
-4.02462e-09
-3.03392e-09
2.15193e-09
-5.7995e-10
3.47165e-11
1.78182e-11
-8.37899e-11
4.29152e-10
1.79619e-09
4.86167e-08
1.71047e-07
1.2125e-07
-8.32416e-08
2.17943e-08
-1.49974e-09
3.72222e-11
-1.5097e-10
7.01264e-10
2.42589e-09
7.41455e-08
2.63156e-07
1.81176e-07
-1.29521e-07
3.22149e-08
-2.69448e-09
3.63529e-11
-1.40492e-10
6.89112e-10
2.70368e-09
7.43948e-08
2.59773e-07
1.77677e-07
-1.22381e-07
3.19147e-08
-2.80371e-09
3.56266e-11
-1.3441e-10
6.86873e-10
2.91154e-09
7.49808e-08
2.59712e-07
1.78276e-07
-1.18608e-07
3.25059e-08
-2.90739e-09
3.8167e-11
-1.42872e-10
7.25117e-10
3.04572e-09
7.8683e-08
2.7381e-07
1.90439e-07
-1.23238e-07
3.46107e-08
-3.14906e-09
4.43865e-11
-1.67604e-10
8.07038e-10
3.07978e-09
8.57185e-08
3.03434e-07
2.1588e-07
-1.35796e-07
3.90918e-08
-3.63984e-09
5.18733e-11
-2.02456e-10
9.13838e-10
3.00144e-09
9.41523e-08
3.41753e-07
2.51244e-07
-1.52064e-07
4.52945e-08
-4.23786e-09
3.15535e-11
-1.41207e-10
6.81543e-10
2.5671e-09
7.423e-08
2.70704e-07
2.09623e-07
-1.1521e-07
3.30166e-08
-2.51547e-09
-9.43605e-13
4.07192e-12
-1.51547e-11
-4.72507e-11
-1.48287e-09
-5.62211e-09
-4.58559e-09
2.68704e-09
-8.42577e-10
5.72324e-11
2.60882e-12
-9.99003e-12
4.07561e-11
1.40608e-10
3.7215e-09
1.31281e-08
9.29781e-09
-7.26422e-09
2.1696e-09
-1.66335e-10
-7.74343e-11
3.17859e-10
-1.69823e-09
-6.39221e-09
-1.7384e-07
-5.96903e-07
-3.96014e-07
2.81192e-07
-7.62643e-08
6.6075e-09
-1.63762e-10
5.79887e-10
-2.80783e-09
-8.66122e-09
-2.67181e-07
-9.27072e-07
-6.00315e-07
4.37408e-07
-1.11561e-07
1.20713e-08
-1.60253e-10
5.39949e-10
-2.77076e-09
-9.75271e-09
-2.68938e-07
-9.16873e-07
-5.89648e-07
4.11463e-07
-1.09562e-07
1.23348e-08
-1.56629e-10
5.14245e-10
-2.75965e-09
-1.05412e-08
-2.7086e-07
-9.15025e-07
-5.90194e-07
3.97081e-07
-1.11282e-07
1.26249e-08
-1.67271e-10
5.44548e-10
-2.9052e-09
-1.10061e-08
-2.83526e-07
-9.61911e-07
-6.285e-07
4.11961e-07
-1.18715e-07
1.36273e-08
-1.93955e-10
6.37431e-10
-3.21957e-09
-1.10487e-08
-3.07684e-07
-1.06222e-06
-7.10346e-07
4.54109e-07
-1.34891e-07
1.58025e-08
-2.25677e-10
7.67161e-10
-3.62121e-09
-1.06338e-08
-3.36033e-07
-1.19068e-06
-8.2406e-07
5.08644e-07
-1.57389e-07
1.8479e-08
-1.36527e-10
5.31885e-10
-2.6833e-09
-9.08952e-09
-2.64455e-07
-9.4045e-07
-6.84034e-07
3.88652e-07
-1.1618e-07
1.09413e-08
4.34723e-12
-1.57876e-11
5.69102e-11
1.47278e-10
4.80317e-09
1.77878e-08
1.37101e-08
-8.90009e-09
3.13892e-09
-2.7006e-10
-1.26554e-11
3.59129e-11
-1.38424e-10
-3.9454e-10
-1.15641e-08
-3.98958e-08
-2.60078e-08
2.19271e-08
-7.64149e-09
8.31952e-10
3.63205e-10
-1.17834e-09
5.97459e-09
1.76714e-08
5.78923e-07
1.95753e-06
1.21125e-06
-9.04679e-07
2.78123e-07
-3.21214e-08
7.73611e-10
-2.14583e-09
9.88856e-09
2.28047e-08
8.93998e-07
3.05989e-06
1.85211e-06
-1.39127e-06
4.0378e-07
-6.04489e-08
7.56908e-10
-1.98954e-09
9.70818e-09
2.65558e-08
9.02986e-07
3.03136e-06
1.81796e-06
-1.30072e-06
3.91681e-07
-6.09507e-08
7.36298e-10
-1.8819e-09
9.61105e-09
2.9202e-08
9.08927e-07
3.01948e-06
1.81274e-06
-1.25004e-06
3.95913e-07
-6.16577e-08
7.83235e-10
-1.98389e-09
1.00856e-08
3.03653e-08
9.487e-07
3.16344e-06
1.92229e-06
-1.29525e-06
4.23104e-07
-6.63266e-08
9.06257e-10
-2.3202e-09
1.11796e-08
2.97e-08
1.02454e-06
3.47775e-06
2.16438e-06
-1.42853e-06
4.83515e-07
-7.70526e-08
1.05147e-09
-2.79338e-09
1.26019e-08
2.73642e-08
1.11126e-06
3.87614e-06
2.50372e-06
-1.60258e-06
5.67354e-07
-9.00369e-08
6.35904e-10
-1.95217e-09
9.39476e-09
2.4452e-08
8.75822e-07
3.06242e-06
2.07889e-06
-1.25202e-06
4.24242e-07
-5.23901e-08
-2.087e-11
5.57836e-11
-1.88012e-10
-3.54377e-10
-1.42419e-08
-5.1798e-08
-3.67969e-08
2.59961e-08
-1.09e-08
1.32658e-09
5.65899e-11
-1.2766e-10
4.65838e-10
9.38122e-10
3.32057e-08
1.14951e-07
7.31674e-08
-6.39709e-08
2.50761e-08
-3.80106e-09
-1.404e-09
3.90336e-09
-1.99257e-08
-4.35206e-08
-1.78464e-06
-6.03561e-06
-3.60841e-06
2.52126e-06
-7.92125e-07
1.20609e-07
-2.98549e-09
7.12271e-09
-3.31897e-08
-5.29353e-08
-2.75671e-06
-9.45206e-06
-5.56745e-06
3.81964e-06
-1.13572e-06
2.30559e-07
-2.91542e-09
6.60703e-09
-3.25532e-08
-6.49793e-08
-2.79329e-06
-9.37087e-06
-5.45024e-06
3.54208e-06
-1.08618e-06
2.28196e-07
-2.82322e-09
6.22339e-09
-3.20954e-08
-7.32585e-08
-2.81028e-06
-9.31319e-06
-5.4057e-06
3.38666e-06
-1.09349e-06
2.27657e-07
-2.98937e-09
6.52905e-09
-3.35663e-08
-7.58079e-08
-2.92363e-06
-9.71861e-06
-5.69883e-06
3.50554e-06
-1.17386e-06
2.43994e-07
-3.44579e-09
7.60475e-09
-3.71335e-08
-7.15243e-08
-3.13886e-06
-1.0627e-05
-6.37952e-06
3.87214e-06
-1.35435e-06
2.84305e-07
-3.98957e-09
9.11535e-09
-4.17651e-08
-6.15667e-08
-3.37741e-06
-1.17699e-05
-7.34645e-06
4.35327e-06
-1.60147e-06
3.33039e-07
-2.43386e-09
6.39369e-09
-3.11619e-08
-5.78971e-08
-2.67761e-06
-9.33979e-06
-6.08315e-06
3.49285e-06
-1.21295e-06
1.92404e-07
9.25704e-11
-1.95497e-10
6.16802e-10
5.99316e-10
3.81361e-08
1.40305e-07
9.7553e-08
-7.30507e-08
3.54446e-08
-5.94753e-09
-2.74551e-10
4.00937e-10
-1.3409e-09
-1.11765e-09
-8.91024e-08
-3.14468e-07
-1.92613e-07
1.62758e-07
-7.81404e-08
1.93262e-08
6.15207e-09
-1.26261e-08
5.96473e-08
4.01055e-08
5.08131e-06
1.75231e-05
1.02086e-05
-6.65503e-06
2.49412e-06
-5.73372e-07
1.28071e-08
-2.24768e-08
9.87316e-08
1.39181e-08
7.82197e-06
2.73669e-05
1.57614e-05
-9.71534e-06
3.53123e-06
-1.11893e-06
1.23861e-08
-2.0682e-08
9.57083e-08
4.48512e-08
7.95006e-06
2.71208e-05
1.53131e-05
-8.90845e-06
3.31052e-06
-1.08683e-06
1.18874e-08
-1.93364e-08
9.3446e-08
6.67284e-08
7.9956e-06
2.68844e-05
1.50712e-05
-8.48376e-06
3.30565e-06
-1.06944e-06
1.25139e-08
-2.01827e-08
9.7393e-08
6.71931e-08
8.28714e-06
2.7929e-05
1.5773e-05
-8.78995e-06
3.56095e-06
-1.14249e-06
1.44052e-08
-2.34789e-08
1.08122e-07
4.29449e-08
8.83329e-06
3.03456e-05
1.75396e-05
-9.74179e-06
4.14174e-06
-1.33463e-06
1.67488e-08
-2.82278e-08
1.22592e-07
3.0912e-09
9.40983e-06
3.33612e-05
2.01238e-05
-1.10079e-05
4.92094e-06
-1.56513e-06
1.05029e-08
-2.03735e-08
9.28508e-08
3.49953e-08
7.53111e-06
2.66952e-05
1.6706e-05
-9.32706e-06
3.80854e-06
-8.95079e-07
-4.4224e-10
5.98525e-10
-1.72096e-09
6.13621e-10
-9.3055e-08
-3.54276e-07
-2.36496e-07
1.74829e-07
-1.08034e-07
2.9668e-08
1.07587e-09
-1.23906e-09
3.86144e-09
-2.33718e-09
1.99803e-07
7.52697e-07
4.81747e-07
-3.69258e-07
2.11011e-07
-7.83279e-08
-2.03119e-08
3.72532e-08
-1.72179e-07
1.67959e-07
-1.33888e-05
-4.82219e-05
-2.85073e-05
1.46928e-05
-5.95459e-06
1.81268e-06
-4.15698e-08
6.55069e-08
-2.84837e-07
3.85461e-07
-2.04286e-05
-7.4581e-05
-4.37957e-05
2.0302e-05
-8.51395e-06
3.55999e-06
-3.98275e-08
6.02569e-08
-2.73703e-07
3.11556e-07
-2.0831e-05
-7.37744e-05
-4.20467e-05
1.83437e-05
-7.85569e-06
3.37578e-06
-3.79456e-08
5.62134e-08
-2.65038e-07
2.57977e-07
-2.09481e-05
-7.29025e-05
-4.09634e-05
1.74263e-05
-7.76949e-06
3.26718e-06
-3.97202e-08
5.84524e-08
-2.755e-07
2.74316e-07
-2.16185e-05
-7.536e-05
-4.25041e-05
1.81695e-05
-8.40938e-06
3.48057e-06
-4.55858e-08
6.77196e-08
-3.06848e-07
3.68778e-07
-2.28331e-05
-8.12928e-05
-4.69194e-05
2.03413e-05
-9.87521e-06
4.08495e-06
-5.32221e-08
8.11329e-08
-3.49665e-07
5.03633e-07
-2.399e-05
-8.8584e-05
-5.36277e-05
2.32082e-05
-1.17209e-05
4.80488e-06
-3.41821e-08
5.95109e-08
-2.6739e-07
3.20508e-07
-1.94653e-05
-7.1825e-05
-4.45622e-05
2.12348e-05
-9.09586e-06
2.752e-06
1.71272e-09
-1.81162e-09
4.89609e-09
-8.48773e-09
1.69274e-07
7.24492e-07
5.12705e-07
-3.60049e-07
2.85875e-07
-1.16528e-07
-4.68207e-09
2.83209e-09
-8.90196e-09
2.66895e-08
-3.62367e-07
-1.62348e-06
-1.12494e-06
6.52122e-07
-5.38628e-07
4.68993e-07
8.17506e-08
-1.0888e-07
4.80248e-07
-1.73616e-06
3.24974e-05
0.000126744
7.69557e-05
-2.98334e-05
1.72116e-05
-9.18297e-06
1.52991e-07
-1.82537e-07
7.85554e-07
-2.99252e-06
4.89305e-05
0.000192799
0.000116026
-3.62639e-05
2.48346e-05
-1.7348e-05
1.43017e-07
-1.66964e-07
7.47544e-07
-2.90103e-06
5.01521e-05
0.000190265
0.000109374
-3.21981e-05
2.26719e-05
-1.59099e-05
1.34687e-07
-1.55387e-07
7.18275e-07
-2.80252e-06
5.04845e-05
0.000187494
0.000105247
-3.09067e-05
2.20936e-05
-1.51648e-05
1.40085e-07
-1.61395e-07
7.45869e-07
-2.91425e-06
5.1815e-05
0.000192729
0.000108134
-3.29224e-05
2.3807e-05
-1.61022e-05
1.60755e-07
-1.87071e-07
8.35172e-07
-3.25146e-06
5.39917e-05
0.00020592
0.000118355
-3.7636e-05
2.78124e-05
-1.88933e-05
1.90602e-07
-2.24439e-07
9.56177e-07
-3.62964e-06
5.54801e-05
0.000221475
0.000134816
-4.36371e-05
3.23936e-05
-2.23404e-05
1.33737e-07
-1.72266e-07
7.45365e-07
-2.7177e-06
4.57456e-05
0.00018271
0.000112955
-4.6717e-05
2.57486e-05
-1.34751e-05
-7.2377e-09
3.9199e-09
-1.09591e-08
4.04942e-08
-1.56314e-07
-1.11893e-06
-9.46641e-07
4.6844e-07
-6.85331e-07
6.77455e-07
9.041e-09
-3.98221e-09
1.84048e-08
-7.2444e-08
2.42949e-07
1.89458e-06
1.8269e-06
-5.95577e-07
6.98619e-07
-7.50912e-07
-1.57176e-07
2.0153e-07
-1.00857e-06
5.62586e-06
-4.67731e-05
-0.00020931
-0.000135822
2.46798e-05
-2.49594e-05
1.60418e-05
-2.79716e-07
3.26718e-07
-1.62827e-06
8.8167e-06
-6.93654e-05
-0.00031016
-0.000199608
1.81749e-05
-3.96747e-05
3.0915e-05
-2.5592e-07
3.00755e-07
-1.56699e-06
8.83724e-06
-7.1846e-05
-0.000305157
-0.000183723
1.52652e-05
-3.67184e-05
2.77963e-05
-2.38811e-07
2.81827e-07
-1.51486e-06
8.75376e-06
-7.25214e-05
-0.000299961
-0.000174176
1.63525e-05
-3.50381e-05
2.60156e-05
-2.47359e-07
2.93945e-07
-1.57323e-06
9.02197e-06
-7.37556e-05
-0.000306147
-0.000177018
2.02526e-05
-3.70783e-05
2.75872e-05
-2.84234e-07
3.40658e-07
-1.74852e-06
9.62229e-06
-7.49878e-05
-0.000322501
-0.000192126
2.60784e-05
-4.23127e-05
3.24771e-05
-3.42014e-07
4.04914e-07
-1.96039e-06
1.01218e-05
-7.36678e-05
-0.000339411
-0.000218112
3.25356e-05
-4.68191e-05
3.79947e-05
-2.53415e-07
3.20848e-07
-1.55419e-06
8.16255e-06
-6.15948e-05
-0.000286
-0.000182933
5.21862e-05
-3.57594e-05
2.29328e-05
1.38283e-08
-5.2982e-09
2.33509e-08
-6.63119e-08
-3.26021e-07
1.79347e-07
1.11428e-06
-3.21172e-08
8.00634e-07
-1.05771e-06
1.00104e-09
-3.98107e-09
4.44738e-09
2.59027e-08
7.22896e-08
-7.42504e-07
-2.48909e-06
-4.21994e-07
-3.71397e-07
5.48291e-08
-3.91761e-08
1.58668e-07
-3.59921e-07
-6.94007e-07
4.17601e-05
0.000189792
0.000189804
2.87701e-05
3.03813e-05
-1.40242e-06
-9.74647e-08
2.50201e-07
-5.57659e-07
-1.2476e-06
6.15613e-05
0.00027254
0.000265483
6.5675e-05
6.50664e-05
-2.09418e-06
-9.91356e-08
2.59987e-07
-6.05668e-07
-1.0865e-06
6.44752e-05
0.000269343
0.000241993
6.03664e-05
6.20616e-05
-8.0905e-07
-9.55371e-08
2.63079e-07
-6.2595e-07
-9.69676e-07
6.51627e-05
0.000265367
0.000229414
5.29389e-05
5.72831e-05
1.15844e-07
-9.96987e-08
2.68245e-07
-6.29945e-07
-1.04197e-06
6.54392e-05
0.000268833
0.000233126
4.73961e-05
5.73689e-05
5.23443e-07
-1.12863e-07
2.73637e-07
-6.12679e-07
-1.28768e-06
6.44548e-05
0.000277227
0.000251797
4.47139e-05
6.1724e-05
6.80463e-07
-1.23754e-07
2.72571e-07
-5.70818e-07
-1.48873e-06
5.94259e-05
0.000280047
0.000282083
4.65736e-05
6.36371e-05
7.29397e-07
-6.62097e-08
2.17692e-07
-4.47718e-07
-1.15729e-06
4.93699e-05
0.00024042
0.000246281
6.17576e-06
3.06292e-05
5.82431e-07
1.61488e-09
-4.19689e-09
1.45047e-09
4.56294e-08
8.23736e-07
1.79845e-06
-9.07583e-07
-1.12574e-06
-6.81343e-07
6.80828e-09
-2.07382e-10
-2.73414e-09
7.22863e-09
-8.00617e-08
-2.84854e-07
2.57986e-07
3.23347e-06
1.17746e-06
-7.12167e-09
3.08041e-07
1.11656e-08
7.49288e-08
-1.99873e-07
2.14056e-06
-7.29439e-05
-0.000326241
-0.000313306
-8.24754e-05
-0.000104615
6.89525e-06
1.96934e-08
1.21853e-07
-3.58072e-07
3.69335e-06
-0.00010729
-0.000466917
-0.000424624
-0.000148598
-0.000201997
4.82362e-06
1.78613e-08
1.02626e-07
-2.88043e-07
3.41047e-06
-0.00011242
-0.000463215
-0.000383844
-0.000130446
-0.000190635
-2.16293e-06
1.72578e-08
9.34784e-08
-2.56382e-07
3.24232e-06
-0.000113286
-0.000456917
-0.000364072
-0.000113956
-0.000172974
-6.76167e-06
1.82348e-08
1.03607e-07
-3.0616e-07
3.53364e-06
-0.00011291
-0.000461649
-0.000370713
-0.00010346
-0.00016769
-7.96736e-06
2.08095e-08
1.37074e-07
-4.51992e-07
4.27967e-06
-0.000109693
-0.000472546
-0.000400675
-0.000100268
-0.000172995
-7.26856e-06
2.58523e-08
1.91846e-07
-6.66939e-07
5.07259e-06
-9.86371e-05
-0.000469811
-0.000447125
-0.000107878
-0.00017424
-5.98335e-06
1.92244e-08
1.5002e-07
-5.17518e-07
3.99767e-06
-8.12261e-05
-0.000401852
-0.000399323
-3.81995e-05
-9.14764e-05
-4.03239e-06
-2.68551e-10
-4.70257e-09
1.53713e-08
-1.35541e-07
-1.70528e-06
-4.66166e-06
-2.38712e-07
2.53729e-06
1.32227e-06
8.58e-07
-2.40519e-10
-3.26653e-09
6.58292e-09
1.04643e-07
1.03267e-06
3.03628e-06
-2.1791e-06
-3.0244e-06
7.63852e-06
3.8284e-05
7.19898e-09
1.08186e-07
-4.71365e-07
1.43214e-06
9.28183e-05
0.000421274
0.000461085
0.000199234
0.000372891
-0.000564616
1.34712e-08
2.00883e-07
-7.65803e-07
1.72134e-06
0.0001347
0.000586804
0.000597535
0.000305479
0.00061048
-0.000555697
1.42322e-08
2.10549e-07
-8.22127e-07
2.25936e-06
0.000141871
0.000585882
0.000535273
0.00025753
0.000567946
-0.000421205
1.43577e-08
2.09489e-07
-8.21154e-07
2.39768e-06
0.000142166
0.000578353
0.000508844
0.000226041
0.000507791
-0.000312473
1.4577e-08
2.10336e-07
-7.86179e-07
1.951e-06
0.000138675
0.000577779
0.000519633
0.000210667
0.00047362
-0.000226209
1.47405e-08
2.10529e-07
-6.99804e-07
9.13318e-07
0.000128784
0.000575119
0.000560548
0.000212548
0.000462197
-0.000163881
1.39952e-08
1.98184e-07
-5.33237e-07
-3.9351e-07
0.000105392
0.000540009
0.000617178
0.000238194
0.000447505
-0.000135148
9.41565e-09
1.34544e-07
-3.75943e-07
-3.8808e-07
8.49778e-05
0.000464908
0.000568594
0.000128853
0.000253771
-0.00010822
-2.62735e-10
-3.60153e-09
4.20123e-10
2.3099e-07
3.33193e-06
1.15973e-05
5.20513e-06
-5.04426e-06
-5.39091e-06
6.69946e-05
6.90845e-11
4.85759e-11
-5.31281e-09
-1.91592e-07
-2.18031e-06
-8.91255e-06
-2.62675e-06
7.71989e-06
8.74412e-05
-0.000857654
-1.94479e-09
-9.17052e-09
3.42332e-07
-4.02503e-06
-0.000132625
-0.000596123
-0.000658105
-0.000316531
-0.00202721
0.00646682
-3.61611e-09
-1.61674e-08
5.31788e-07
-5.19386e-06
-0.000190319
-0.000819694
-0.00081683
-0.000436829
-0.00274118
0.00726288
-4.37776e-09
-2.06389e-08
5.69746e-07
-6.00789e-06
-0.000200012
-0.000823511
-0.000727706
-0.000337162
-0.00255169
0.00635679
-4.48892e-09
-1.90754e-08
5.45584e-07
-5.97263e-06
-0.000198437
-0.000812068
-0.000695113
-0.000291715
-0.00228131
0.0053747
-4.11796e-09
-1.213e-08
4.71636e-07
-4.88146e-06
-0.000189419
-0.000801944
-0.000712618
-0.000278116
-0.00203326
0.00435942
-2.97366e-09
3.58489e-09
3.19567e-07
-2.70381e-06
-0.000169075
-0.000778033
-0.000765997
-0.000295079
-0.00181987
0.00343025
-5.80651e-10
3.20935e-08
5.12158e-08
1.99533e-07
-0.00012702
-0.000691118
-0.00082605
-0.000352908
-0.00162188
0.00274611
-5.92251e-10
2.20758e-08
1.03712e-08
4.135e-07
-9.84534e-05
-0.000586001
-0.000783239
-0.00020434
-0.00103536
0.00194596
2.03909e-11
-7.64069e-10
1.79929e-09
-4.36051e-07
-5.73776e-06
-2.29956e-05
-1.75635e-05
7.99196e-06
0.000181584
-0.00118129
-7.67186e-11
-4.85991e-10
1.19888e-08
3.14828e-07
4.21949e-06
1.97891e-05
1.87208e-05
2.02813e-05
-0.000776207
0.0059673
2.33938e-09
2.53685e-08
-4.54461e-07
9.88365e-06
0.000179517
0.000807827
0.000909352
0.000122168
0.00800183
-0.0264294
5.70063e-09
5.84526e-08
-7.57365e-07
1.35911e-05
0.000252218
0.00108819
0.00108991
0.000154162
0.0106569
-0.0328646
6.27204e-09
6.04446e-08
-7.45886e-07
1.47161e-05
0.000263739
0.00109973
0.000971909
-1.2939e-05
0.0099312
-0.0290981
6.2078e-09
5.75006e-08
-6.87195e-07
1.41532e-05
0.000257596
0.00107968
0.000933437
-3.34022e-05
0.00879142
-0.0246969
6.16797e-09
5.60581e-08
-6.24683e-07
1.18878e-05
0.000237935
0.00104567
0.000957486
1.15368e-05
0.0076075
-0.0205586
5.98314e-09
5.41933e-08
-5.22861e-07
7.89543e-06
0.000199582
0.000973972
0.0010165
0.000105519
0.00652172
-0.0170308
4.8075e-09
4.35666e-08
-2.99624e-07
2.41768e-06
0.000128546
0.000789527
0.00105266
0.000250728
0.00557282
-0.014121
2.51044e-09
2.23716e-08
-1.68617e-07
1.03547e-06
9.26099e-05
0.000651101
0.00101674
0.000101598
0.00350168
-0.00868458
-9.48814e-11
-6.56372e-10
1.15356e-08
7.25588e-07
9.17898e-06
4.09773e-05
4.75511e-05
3.36901e-05
-0.00132169
0.00727598
-4.06923e-11
-8.15103e-10
-1.56283e-08
-5.35034e-07
-7.52191e-06
-3.83104e-05
-5.24793e-05
-0.000202039
0.00354322
-0.0227399
-5.35314e-10
-5.66483e-09
1.35082e-07
-1.78813e-05
-0.000246669
-0.00110908
-0.0012824
0.00121307
-0.0146407
0.0557867
-1.72294e-09
-1.29315e-08
2.62658e-07
-2.45625e-05
-0.000338814
-0.00146512
-0.00150455
0.00154222
-0.0201257
0.078715
-1.87928e-09
-1.27928e-08
1.83467e-07
-2.58554e-05
-0.000350616
-0.00148543
-0.00135948
0.00177114
-0.018505
0.0697052
-1.80393e-09
-1.15377e-08
1.23113e-07
-2.41394e-05
-0.000335468
-0.00144609
-0.00130849
0.00161278
-0.0163076
0.0586421
-1.77529e-09
-1.01459e-08
1.18949e-07
-1.96466e-05
-0.000298311
-0.00136627
-0.00132446
0.00130555
-0.0142939
0.0491061
-1.70276e-09
-7.56436e-09
1.22125e-07
-1.24489e-05
-0.000233236
-0.00121173
-0.00135912
0.000945489
-0.0126149
0.0415646
-1.18886e-09
-1.31228e-09
2.38555e-08
-2.7015e-06
-0.000122261
-0.000871111
-0.00130728
0.000595484
-0.0110894
0.0346652
-5.18367e-10
-1.16232e-10
-7.35287e-09
-4.11288e-07
-7.73289e-05
-0.000678401
-0.00126254
0.000628092
-0.00624634
0.0160359
-4.0367e-11
-1.18784e-09
-2.93098e-08
-1.11018e-06
-1.34154e-05
-6.63744e-05
-0.000106639
-0.000285904
0.00473107
-0.0258229
6.83054e-11
1.14051e-09
2.17089e-08
9.58309e-07
1.27381e-05
7.03904e-05
0.000111283
0.000362233
-0.00561561
0.0560596
1.38474e-09
3.21156e-08
6.35843e-07
3.06945e-05
0.000336294
0.00150757
0.00188316
-0.00354888
0.0223456
-0.0610658
2.00112e-09
4.25711e-08
8.83712e-07
4.22611e-05
0.000450432
0.00193864
0.00222322
-0.00400289
0.0297426
-0.100036
2.41797e-09
4.8783e-08
1.05598e-06
4.34708e-05
0.000459153
0.00196427
0.00207168
-0.00440387
0.0283095
-0.0877533
2.59222e-09
4.99128e-08
1.02882e-06
3.95733e-05
0.000428129
0.00188655
0.0019771
-0.00405581
0.0254363
-0.0719617
2.36125e-09
4.29584e-08
7.88701e-07
3.13564e-05
0.000363763
0.00172476
0.00192121
-0.00343482
0.0225651
-0.0596373
1.79598e-09
2.9834e-08
4.09102e-07
1.91851e-05
0.000260835
0.00143517
0.00183733
-0.00284228
0.0201223
-0.0510475
1.07919e-09
1.46496e-08
3.90499e-08
3.07713e-06
9.79566e-05
0.000861645
0.00156105
-0.0024612
0.0179443
-0.0417043
5.6707e-10
6.72094e-09
-1.90344e-08
-2.10915e-07
4.83257e-05
0.000609086
0.00145381
-0.00258437
0.0117803
-0.00790668
1.43398e-10
3.28794e-09
6.33908e-08
1.51958e-06
1.76617e-05
9.80519e-05
0.000186398
0.000739726
-0.00632009
0.0609308
4.98227e-12
3.30704e-10
-2.05912e-08
-1.80052e-06
-2.09255e-05
-0.000127223
-0.000275534
0.000651991
-0.0167028
-0.10659
-6.30875e-09
-1.49522e-07
-2.32311e-06
-5.0045e-05
-0.000461643
-0.00206502
-0.00259072
0.00432755
-0.0451101
0.0301087
-1.07716e-08
-2.26613e-07
-3.483e-06
-6.86714e-05
-0.000604279
-0.00257461
-0.00310883
0.00281515
-0.0434084
0.0729501
-1.26042e-08
-2.49905e-07
-3.74989e-06
-6.91008e-05
-0.000604121
-0.00259128
-0.00303393
0.00306356
-0.0423097
0.061701
-1.26459e-08
-2.39581e-07
-3.42481e-06
-6.12715e-05
-0.000547081
-0.00244328
-0.00287103
0.00370883
-0.043457
0.0471741
-1.09198e-08
-1.95458e-07
-2.61047e-06
-4.69594e-05
-0.000442687
-0.00214819
-0.00264845
0.00455889
-0.0442829
0.037552
-7.70254e-09
-1.24682e-07
-1.44544e-06
-2.72199e-05
-0.000288925
-0.00165588
-0.00231956
0.00574418
-0.0450087
0.0328287
-3.58711e-09
-4.02111e-08
-1.145e-07
-2.16984e-06
-6.3041e-05
-0.00075377
-0.00166309
0.00688661
-0.0465621
0.025104
-1.58648e-09
-1.12689e-08
9.59774e-08
7.44808e-07
-1.96119e-05
-0.000454295
-0.00149137
0.00838487
-0.0461468
-0.0176097
-1.80816e-10
-5.76598e-09
-1.09199e-07
-1.80473e-06
-2.05386e-05
-0.000132057
-0.000284337
0.00160958
-0.0148446
-0.113499
-5.72607e-12
-1.22903e-09
6.55223e-08
3.39023e-06
3.44126e-05
0.000220863
0.000630701
-0.0104406
0.0934384
0.157352
9.31047e-09
3.71682e-07
5.88529e-06
8.13203e-05
0.000641979
0.00287451
0.00251629
-0.0186567
0.176052
0.0330678
1.83351e-08
6.18771e-07
8.93039e-06
0.0001111
0.000822078
0.00344156
0.00314272
-0.0144929
0.194562
0.00209387
2.14283e-08
6.64173e-07
9.22948e-06
0.000109495
0.000803121
0.00340763
0.00328454
-0.0151817
0.195302
0.0071445
2.06341e-08
6.09622e-07
8.16e-06
9.48749e-05
0.000704865
0.00313458
0.00316605
-0.0169971
0.19308
0.012615
1.70001e-08
4.79986e-07
6.09978e-06
7.07334e-05
0.00054259
0.00263411
0.00285018
-0.0188824
0.186736
0.011775
1.1126e-08
2.9098e-07
3.34407e-06
3.93973e-05
0.000321199
0.00185654
0.00238311
-0.0194904
0.178399
0.0050119
3.71753e-09
5.69872e-08
1.55292e-07
1.76155e-06
2.22254e-05
0.000527711
0.0014365
-0.0172507
0.168328
0.00304526
9.86377e-10
5.24108e-10
-8.44962e-08
1.78398e-06
6.93674e-06
0.000257641
0.00152094
-0.015038
0.145556
0.0416551
1.32178e-10
7.9204e-09
1.63236e-07
1.86291e-06
2.02926e-05
0.000159244
0.000504287
-0.00951781
0.063937
0.160262
-4.05294e-11
-4.51998e-09
-3.67133e-07
-6.57088e-06
-5.80465e-05
-0.000377424
-0.00148429
0.0162864
-0.133426
-0.160248
-1.12777e-08
-8.82933e-07
-1.34935e-05
-0.000131911
-0.0008994
-0.00429766
-0.000205001
-0.0820752
-0.168917
-0.104344
-2.19669e-08
-1.47341e-06
-1.99045e-05
-0.000176133
-0.00112208
-0.00491769
-0.00115638
-0.0818211
-0.177391
-0.0965559
-2.39331e-08
-1.53579e-06
-1.98306e-05
-0.000168974
-0.00106672
-0.00474253
-0.00199587
-0.0773589
-0.184675
-0.0881492
-2.20639e-08
-1.36378e-06
-1.70437e-05
-0.000142314
-0.00090414
-0.0042251
-0.0022113
-0.0739654
-0.182294
-0.072077
-1.77408e-08
-1.03771e-06
-1.24597e-05
-0.000102177
-0.000658715
-0.00337256
-0.00206107
-0.0745279
-0.17202
-0.0465856
-1.13668e-08
-5.96422e-07
-6.73575e-06
-5.30529e-05
-0.00034749
-0.00214282
-0.00180673
-0.0763156
-0.15769
-0.0110636
-3.00372e-09
-5.96172e-08
-4.21196e-07
1.35342e-06
3.0184e-05
-0.000219832
-0.00054432
-0.0742165
-0.138497
0.0253845
-5.32384e-10
1.03795e-08
-7.316e-07
-6.29365e-06
-1.13875e-05
-0.000114758
-0.00145431
-0.0714691
-0.102734
0.0242664
-5.14748e-11
-1.19989e-08
-1.93085e-07
-1.54357e-06
-1.56049e-05
-0.000159528
-0.00107745
-2.11444e-06
-0.041179
-0.0877129
1.40759e-10
2.04352e-08
6.77526e-07
9.38153e-06
0.000100658
0.000691333
-0.000354779
0.0445952
-0.0521423
0.340856
1.36789e-08
8.93759e-07
1.46401e-05
0.000163521
0.00130876
0.00719634
-0.00193014
0.324298
-0.175051
0.57843
2.38579e-08
1.43562e-06
2.09452e-05
0.00021032
0.0015786
0.0078443
-0.00459083
0.416152
-0.23141
0.599496
2.43328e-08
1.42935e-06
1.99581e-05
0.000193491
0.00145234
0.00734636
-0.00316275
0.408973
-0.233546
0.600617
2.07721e-08
1.20494e-06
1.63774e-05
0.000154608
0.00117881
0.00632813
-0.00153928
0.369261
-0.228752
0.623173
1.48592e-08
8.56543e-07
1.12994e-05
0.000101713
0.000797649
0.00479498
0.000574051
0.306794
-0.22196
0.665865
7.55456e-09
4.47133e-07
5.58803e-06
4.18901e-05
0.000347001
0.00273905
0.00280915
0.231544
-0.210858
0.724818
-6.59667e-10
2.96839e-08
4.47931e-07
-1.34919e-05
-0.000128959
-0.000135492
0.00198903
0.155007
-0.194552
0.785967
-1.1039e-09
6.96103e-08
1.919e-06
3.4727e-06
-9.82218e-06
0.00014436
0.00493822
0.0826373
-0.174139
0.793163
1.70383e-11
2.51347e-09
-1.40708e-08
4.32789e-07
1.05277e-05
0.000138509
0.000914136
0.0278741
-0.10001
0.533776
-2.57468e-10
-3.03363e-08
-8.33681e-07
-1.17098e-05
-0.000161218
-0.00163036
-0.0105447
0.0526839
0.242793
0.741124
-1.78199e-08
-1.23055e-06
-2.08175e-05
-0.00021171
-0.00175186
-0.0119881
-0.0567619
0.535394
0.181711
0.903574
-3.25971e-08
-1.98369e-06
-2.7869e-05
-0.000253713
-0.00201433
-0.0127153
-0.0410657
0.670371
0.133763
0.900772
-3.28925e-08
-1.93488e-06
-2.5355e-05
-0.000220482
-0.00176209
-0.011535
-0.0419373
0.655684
0.141085
0.89286
-2.82134e-08
-1.62237e-06
-1.98299e-05
-0.000162882
-0.00132547
-0.00943664
-0.0445703
0.603151
0.147277
0.91094
-2.10859e-08
-1.17422e-06
-1.26187e-05
-9.08976e-05
-0.00076643
-0.0064869
-0.0453357
0.530319
0.14478
0.950801
-1.27363e-08
-6.60572e-07
-4.72315e-06
-1.4278e-05
-0.000157059
-0.0028815
-0.040943
0.445304
0.133235
1.01117
-3.88799e-09
-1.72791e-07
1.67318e-06
4.48668e-05
0.000363852
0.00122531
-0.0260967
0.351607
0.122043
1.08329
-3.61145e-09
-2.24636e-07
2.94361e-07
2.85327e-05
0.000180215
0.00037426
-0.0182764
0.213225
0.14065
1.1126
-2.1039e-13
7.30113e-10
-6.77708e-08
-1.71227e-06
-1.14776e-05
-0.00010732
-0.00313324
0.00700841
0.0981741
0.949708
2.23066e-10
2.15913e-08
6.39448e-07
1.07824e-05
0.000182448
0.00228751
0.0203075
0.158171
0.597901
0.866862
2.20948e-08
1.5328e-06
2.41907e-05
0.000238352
0.00212796
0.0156447
0.141573
0.770963
0.428002
1.03409
3.82847e-08
2.15142e-06
2.67699e-05
0.000249015
0.00226778
0.0171894
0.176514
0.922784
0.328119
1.06011
3.69178e-08
1.93806e-06
2.1462e-05
0.000192683
0.00181474
0.0145111
0.158535
0.90578
0.327757
1.05817
3.06816e-08
1.49081e-06
1.38472e-05
0.000115628
0.00116585
0.0102129
0.126302
0.847524
0.343364
1.07393
2.22973e-08
9.29593e-07
5.04315e-06
2.84058e-05
0.000412696
0.00488473
0.0841878
0.762203
0.370293
1.10125
1.30082e-08
3.30196e-07
-3.71829e-06
-5.60798e-05
-0.000329369
-0.000613684
0.0372369
0.65916
0.415973
1.12796
4.59259e-09
-1.29569e-07
-8.92784e-06
-0.000102764
-0.000787498
-0.00503925
-0.0115004
0.555401
0.450908
1.15586
5.07154e-09
-8.19695e-08
-8.4902e-06
-9.69639e-05
-0.000606628
-0.00273508
-0.0245493
0.417886
0.418232
1.20356
8.71232e-11
1.05583e-08
3.83718e-07
4.68671e-06
2.28344e-05
-0.000117802
-0.00411793
0.0582338
0.316202
1.14865
-1.56569e-10
-1.49052e-08
-7.13769e-07
-1.29739e-05
-0.000165542
-0.000921738
0.0098339
0.157405
0.74067
1.0783
-2.91645e-08
-1.69141e-06
-2.25535e-05
-0.000225852
-0.00230299
-0.0123494
0.126728
0.918375