/*--------------------------------*- C++ -*----------------------------------*\
| =========                 |                                                 |
| \\      /  F ield         | OpenFOAM: The Open Source CFD Toolbox           |
|  \\    /   O peration     | Version:  1.7.x                                 |
|   \\  /    A nd           | Web:      www.OpenFOAM.com                      |
|    \\/     M anipulation  |                                                 |
\*---------------------------------------------------------------------------*/
FoamFile
{
    version     2.0;
    format      ascii;
    class       volScalarField;
    location    "0.3";
    object      conc;
}
// * * * * * * * * * * * * * * * * * * * * * * * * * * * * * * * * * * * * * //

dimensions      [0 -3 0 0 1 0 0];

internalField   nonuniform List<scalar> 
8000
(
3.64992e-12
-2.3713e-11
1.06008e-10
5.32646e-10
1.50268e-08
6.10477e-08
5.88192e-08
-2.73406e-08
4.51978e-09
-7.18529e-11
-1.15669e-10
7.57555e-10
-4.09824e-09
-2.24469e-08
-5.96798e-07
-2.33733e-06
-2.1278e-06
1.00743e-06
-1.84498e-07
5.64132e-09
-2.29195e-10
1.31839e-09
-6.51171e-09
-3.04363e-08
-8.87305e-07
-3.48994e-06
-3.08261e-06
1.56736e-06
-2.78715e-07
1.02145e-08
-2.23165e-10
1.23306e-09
-6.41706e-09
-3.32281e-08
-8.87834e-07
-3.44336e-06
-3.02174e-06
1.50004e-06
-2.84347e-07
1.19293e-08
-2.20628e-10
1.19605e-09
-6.45368e-09
-3.55075e-08
-8.98764e-07
-3.46427e-06
-3.04979e-06
1.46742e-06
-2.93784e-07
1.32172e-08
-2.37776e-10
1.28098e-09
-6.85298e-09
-3.73105e-08
-9.4802e-07
-3.67252e-06
-3.26975e-06
1.52489e-06
-3.12078e-07
1.45203e-08
-2.77005e-10
1.50214e-09
-7.64049e-09
-3.83422e-08
-1.0379e-06
-4.08462e-06
-3.70515e-06
1.66814e-06
-3.46702e-07
1.64808e-08
-3.25803e-10
1.81609e-09
-8.66802e-09
-3.83408e-08
-1.14759e-06
-4.62043e-06
-4.30223e-06
1.84755e-06
-3.91381e-07
1.84617e-08
-2.04943e-10
1.28788e-09
-6.544e-09
-3.24432e-08
-9.1359e-07
-3.70328e-06
-3.60743e-06
1.36394e-06
-2.68932e-07
9.6614e-09
6.17106e-12
-3.84749e-11
1.56746e-10
6.55632e-10
2.09588e-08
8.86283e-08
9.07807e-08
-3.43426e-08
6.4744e-09
-1.29415e-10
-2.33259e-11
1.41311e-10
-6.08874e-10
-2.87189e-09
-7.88095e-08
-3.08123e-07
-2.75825e-07
1.48984e-07
-2.99471e-08
9.42648e-10
7.31285e-10
-4.42811e-09
2.27262e-08
1.16155e-07
3.0792e-06
1.16171e-05
9.76254e-06
-5.35461e-06
1.14412e-06
-4.91028e-08
1.47573e-09
-7.80031e-09
3.64677e-08
1.57809e-07
4.61474e-06
1.75039e-05
1.42619e-05
-8.32899e-06
1.71629e-06
-8.66295e-08
1.43727e-09
-7.28506e-09
3.58575e-08
1.73091e-07
4.6163e-06
1.72562e-05
1.39704e-05
-7.93884e-06
1.73141e-06
-9.52798e-08
1.41687e-09
-7.04022e-09
3.59448e-08
1.85254e-07
4.66523e-06
1.73237e-05
1.40752e-05
-7.74767e-06
1.77828e-06
-1.02311e-07
1.52483e-09
-7.52607e-09
3.81148e-08
1.94446e-07
4.91468e-06
1.83418e-05
1.50829e-05
-8.05776e-06
1.89013e-06
-1.1167e-07
1.77708e-09
-8.82912e-09
4.25234e-08
1.991e-07
5.37756e-06
2.0398e-05
1.71122e-05
-8.84606e-06
2.11219e-06
-1.27754e-07
2.08846e-09
-1.06759e-08
4.8305e-08
1.97965e-07
5.94328e-06
2.308e-05
1.99149e-05
-9.85078e-06
2.40846e-06
-1.45991e-07
1.29789e-09
-7.52124e-09
3.62999e-08
1.67563e-07
4.71598e-06
1.84318e-05
1.66859e-05
-7.33977e-06
1.69775e-06
-8.33981e-08
-3.94308e-11
2.28749e-10
-8.97317e-10
-3.50109e-09
-1.09378e-07
-4.45687e-07
-4.26523e-07
1.88771e-07
-4.33769e-08
1.60664e-09
1.14733e-10
-6.20939e-10
2.6721e-09
1.16284e-08
3.09551e-07
1.16394e-06
9.60318e-07
-5.9416e-07
1.38024e-07
-6.19816e-09
-3.54928e-09
1.9463e-08
-1.03859e-07
-4.89301e-07
-1.2614e-05
-4.58877e-05
-3.55334e-05
2.16673e-05
-5.03775e-06
2.76512e-07
-7.27411e-09
3.47585e-08
-1.68589e-07
-6.6883e-07
-1.90762e-05
-6.98891e-05
-5.25734e-05
3.37565e-05
-7.46954e-06
4.86227e-07
-7.09047e-09
3.24239e-08
-1.66135e-07
-7.36556e-07
-1.90998e-05
-6.89102e-05
-5.15227e-05
3.2027e-05
-7.46491e-06
5.16424e-07
-6.96986e-09
3.11852e-08
-1.66325e-07
-7.89105e-07
-1.92719e-05
-6.90255e-05
-5.18043e-05
3.11393e-05
-7.63505e-06
5.43426e-07
-7.48579e-09
3.32513e-08
-1.7601e-07
-8.27389e-07
-2.02663e-05
-7.29418e-05
-5.54433e-05
3.23739e-05
-8.12396e-06
5.9072e-07
-8.7177e-09
3.90139e-08
-1.95896e-07
-8.44785e-07
-2.21387e-05
-8.10211e-05
-6.29104e-05
3.56258e-05
-9.13402e-06
6.80186e-07
-1.02237e-08
4.71345e-08
-2.21655e-07
-8.36196e-07
-2.44138e-05
-9.15399e-05
-7.32485e-05
3.98058e-05
-1.05171e-05
7.87905e-07
-6.29676e-09
3.296e-08
-1.65422e-07
-7.05881e-07
-1.93024e-05
-7.27771e-05
-6.11452e-05
2.98549e-05
-7.57791e-06
4.67634e-07
1.93382e-10
-9.99995e-10
3.88502e-09
1.37926e-08
4.23229e-07
1.66168e-06
1.47529e-06
-7.5082e-07
2.01154e-07
-1.03744e-08
-5.63071e-10
2.55516e-09
-1.06139e-08
-4.19694e-08
-1.11117e-06
-4.02462e-06
-3.03392e-06
2.15193e-06
-5.7995e-07
3.47165e-08
1.78182e-08
-8.37899e-08
4.29152e-07
1.79619e-06
4.86167e-05
0.000171047
0.00012125
-8.32416e-05
2.17943e-05
-1.49974e-06
3.72222e-08
-1.5097e-07
7.01264e-07
2.42589e-06
7.41455e-05
0.000263156
0.000181176
-0.000129521
3.22149e-05
-2.69448e-06
3.63529e-08
-1.40492e-07
6.89112e-07
2.70368e-06
7.43948e-05
0.000259773
0.000177677
-0.000122381
3.19147e-05
-2.80371e-06
3.56266e-08
-1.3441e-07
6.86873e-07
2.91154e-06
7.49808e-05
0.000259712
0.000178276
-0.000118608
3.25059e-05
-2.90739e-06
3.8167e-08
-1.42872e-07
7.25117e-07
3.04572e-06
7.8683e-05
0.00027381
0.000190439
-0.000123238
3.46107e-05
-3.14906e-06
4.43865e-08
-1.67604e-07
8.07038e-07
3.07978e-06
8.57185e-05
0.000303434
0.00021588
-0.000135796
3.90918e-05
-3.63984e-06
5.18733e-08
-2.02456e-07
9.13838e-07
3.00144e-06
9.41523e-05
0.000341753
0.000251244
-0.000152064
4.52945e-05
-4.23786e-06
3.15535e-08
-1.41207e-07
6.81543e-07
2.5671e-06
7.423e-05
0.000270704
0.000209623
-0.00011521
3.30166e-05
-2.51547e-06
-9.43605e-10
4.07192e-09
-1.51547e-08
-4.72507e-08
-1.48287e-06
-5.62211e-06
-4.58559e-06
2.68704e-06
-8.42577e-07
5.72324e-08
2.60882e-09
-9.99003e-09
4.07561e-08
1.40608e-07
3.7215e-06
1.31281e-05
9.29781e-06
-7.26422e-06
2.1696e-06
-1.66335e-07
-7.74343e-08
3.17859e-07
-1.69823e-06
-6.39221e-06
-0.00017384
-0.000596903
-0.000396014
0.000281192
-7.62643e-05
6.6075e-06
-1.63762e-07
5.79887e-07
-2.80783e-06
-8.66122e-06
-0.000267181
-0.000927072
-0.000600315
0.000437408
-0.000111561
1.20713e-05
-1.60253e-07
5.39949e-07
-2.77076e-06
-9.75271e-06
-0.000268938
-0.000916873
-0.000589648
0.000411463
-0.000109562
1.23348e-05
-1.56629e-07
5.14245e-07
-2.75965e-06
-1.05412e-05
-0.00027086
-0.000915025
-0.000590194
0.000397081
-0.000111282
1.26249e-05
-1.67271e-07
5.44548e-07
-2.9052e-06
-1.10061e-05
-0.000283526
-0.000961911
-0.0006285
0.000411961
-0.000118715
1.36273e-05
-1.93955e-07
6.37431e-07
-3.21957e-06
-1.10487e-05
-0.000307684
-0.00106222
-0.000710346
0.000454109
-0.000134891
1.58025e-05
-2.25677e-07
7.67161e-07
-3.62121e-06
-1.06338e-05
-0.000336033
-0.00119068
-0.00082406
0.000508644
-0.000157389
1.8479e-05
-1.36527e-07
5.31885e-07
-2.6833e-06
-9.08952e-06
-0.000264455
-0.00094045
-0.000684034
0.000388652
-0.00011618
1.09413e-05
4.34723e-09
-1.57876e-08
5.69102e-08
1.47278e-07
4.80317e-06
1.77878e-05
1.37101e-05
-8.90009e-06
3.13892e-06
-2.7006e-07
-1.26554e-08
3.59129e-08
-1.38424e-07
-3.9454e-07
-1.15641e-05
-3.98958e-05
-2.60078e-05
2.19271e-05
-7.64149e-06
8.31952e-07
3.63205e-07
-1.17834e-06
5.97459e-06
1.76714e-05
0.000578923
0.00195753
0.00121125
-0.000904679
0.000278123
-3.21214e-05
7.73611e-07
-2.14583e-06
9.88856e-06
2.28047e-05
0.000893998
0.00305989
0.00185211
-0.00139127
0.00040378
-6.04489e-05
7.56908e-07
-1.98954e-06
9.70818e-06
2.65558e-05
0.000902986
0.00303136
0.00181796
-0.00130072
0.000391681
-6.09507e-05
7.36298e-07
-1.8819e-06
9.61105e-06
2.9202e-05
0.000908927
0.00301948
0.00181274
-0.00125004
0.000395913
-6.16577e-05
7.83235e-07
-1.98389e-06
1.00856e-05
3.03653e-05
0.0009487
0.00316344
0.00192229
-0.00129525
0.000423104
-6.63266e-05
9.06257e-07
-2.3202e-06
1.11796e-05
2.97e-05
0.00102454
0.00347775
0.00216438
-0.00142853
0.000483515
-7.70526e-05
1.05147e-06
-2.79338e-06
1.26019e-05
2.73642e-05
0.00111126
0.00387614
0.00250372
-0.00160258
0.000567354
-9.00369e-05
6.35904e-07
-1.95217e-06
9.39476e-06
2.4452e-05
0.000875822
0.00306242
0.00207889
-0.00125202
0.000424242
-5.23901e-05
-2.087e-08
5.57836e-08
-1.88012e-07
-3.54377e-07
-1.42419e-05
-5.1798e-05
-3.67969e-05
2.59961e-05
-1.09e-05
1.32658e-06
5.65899e-08
-1.2766e-07
4.65838e-07
9.38122e-07
3.32057e-05
0.000114951
7.31674e-05
-6.39709e-05
2.50761e-05
-3.80106e-06
-1.404e-06
3.90336e-06
-1.99257e-05
-4.35206e-05
-0.00178464
-0.00603561
-0.00360841
0.00252126
-0.000792125
0.000120609
-2.98549e-06
7.12271e-06
-3.31897e-05
-5.29353e-05
-0.00275671
-0.00945206
-0.00556745
0.00381964
-0.00113572
0.000230559
-2.91542e-06
6.60703e-06
-3.25532e-05
-6.49793e-05
-0.00279329
-0.00937087
-0.00545024
0.00354208
-0.00108618
0.000228196
-2.82322e-06
6.22339e-06
-3.20954e-05
-7.32585e-05
-0.00281028
-0.00931319
-0.0054057
0.00338666
-0.00109349
0.000227657
-2.98937e-06
6.52905e-06
-3.35663e-05
-7.58079e-05
-0.00292363
-0.00971861
-0.00569883
0.00350554
-0.00117386
0.000243994
-3.44579e-06
7.60475e-06
-3.71335e-05
-7.15243e-05
-0.00313886
-0.010627
-0.00637952
0.00387214
-0.00135435
0.000284305
-3.98957e-06
9.11535e-06
-4.17651e-05
-6.15667e-05
-0.00337741
-0.0117699
-0.00734645
0.00435327
-0.00160147
0.000333039
-2.43386e-06
6.39369e-06
-3.11619e-05
-5.78971e-05
-0.00267761
-0.00933979
-0.00608315
0.00349285
-0.00121295
0.000192404
9.25704e-08
-1.95497e-07
6.16802e-07
5.99316e-07
3.81361e-05
0.000140305
9.7553e-05
-7.30507e-05
3.54446e-05
-5.94753e-06
-2.74551e-07
4.00937e-07
-1.3409e-06
-1.11765e-06
-8.91024e-05
-0.000314468
-0.000192613
0.000162758
-7.81404e-05
1.93262e-05
6.15207e-06
-1.26261e-05
5.96473e-05
4.01055e-05
0.00508131
0.0175231
0.0102086
-0.00665503
0.00249412
-0.000573372
1.28071e-05
-2.24768e-05
9.87316e-05
1.39181e-05
0.00782197
0.0273669
0.0157614
-0.00971534
0.00353123
-0.00111893
1.23861e-05
-2.0682e-05
9.57083e-05
4.48512e-05
0.00795006
0.0271208
0.0153131
-0.00890845
0.00331052
-0.00108683
1.18874e-05
-1.93364e-05
9.3446e-05
6.67284e-05
0.0079956
0.0268844
0.0150712
-0.00848376
0.00330565
-0.00106944
1.25139e-05
-2.01827e-05
9.7393e-05
6.71931e-05
0.00828714
0.027929
0.015773
-0.00878995
0.00356095
-0.00114249
1.44052e-05
-2.34789e-05
0.000108122
4.29449e-05
0.00883329
0.0303456
0.0175396
-0.00974179
0.00414174
-0.00133463
1.67488e-05
-2.82278e-05
0.000122592
3.0912e-06
0.00940983
0.0333612
0.0201238
-0.0110079
0.00492094
-0.00156513
1.05029e-05
-2.03735e-05
9.28508e-05
3.49953e-05
0.00753111
0.0266952
0.016706
-0.00932706
0.00380854
-0.000895079
-4.4224e-07
5.98525e-07
-1.72096e-06
6.13621e-07
-9.3055e-05
-0.000354276
-0.000236496
0.000174829
-0.000108034
2.9668e-05
1.07587e-06
-1.23906e-06
3.86144e-06
-2.33718e-06
0.000199803
0.000752697
0.000481747
-0.000369258
0.000211011
-7.83279e-05
-2.03119e-05
3.72532e-05
-0.000172179
0.000167959
-0.0133888
-0.0482219
-0.0285073
0.0146928
-0.00595459
0.00181268
-4.15698e-05
6.55069e-05
-0.000284837
0.000385461
-0.0204286
-0.074581
-0.0437957
0.020302
-0.00851395
0.00355999
-3.98275e-05
6.02569e-05
-0.000273703
0.000311556
-0.020831
-0.0737744
-0.0420467
0.0183437
-0.00785569
0.00337578
-3.79456e-05
5.62134e-05
-0.000265038
0.000257977
-0.0209481
-0.0729025
-0.0409634
0.0174263
-0.00776949
0.00326718
-3.97202e-05
5.84524e-05
-0.0002755
0.000274316
-0.0216185
-0.07536
-0.0425041
0.0181695
-0.00840938
0.00348057
-4.55858e-05
6.77196e-05
-0.000306848
0.000368778
-0.0228331
-0.0812928
-0.0469194
0.0203413
-0.00987521
0.00408495
-5.32221e-05
8.11329e-05
-0.000349665
0.000503633
-0.02399
-0.088584
-0.0536277
0.0232082
-0.0117209
0.00480488
-3.41821e-05
5.95109e-05
-0.00026739
0.000320508
-0.0194653
-0.071825
-0.0445622
0.0212348
-0.00909586
0.002752
1.71272e-06
-1.81162e-06
4.89609e-06
-8.48773e-06
0.000169274
0.000724492
0.000512705
-0.000360049
0.000285875
-0.000116528
-4.68207e-06
2.83209e-06
-8.90196e-06
2.66895e-05
-0.000362367
-0.00162348
-0.00112494
0.000652122
-0.000538628
0.000468993
8.17506e-05
-0.00010888
0.000480248
-0.00173616
0.0324974
0.126744
0.0769557
-0.0298334
0.0172116
-0.00918297
0.000152991
-0.000182537
0.000785554
-0.00299252
0.0489305
0.192799
0.116026
-0.0362639
0.0248346
-0.017348
0.000143017
-0.000166964
0.000747544
-0.00290103
0.0501521
0.190265
0.109374
-0.0321981
0.0226719
-0.0159099
0.000134687
-0.000155387
0.000718275
-0.00280252
0.0504845
0.187494
0.105247
-0.0309067
0.0220936
-0.0151648
0.000140085
-0.000161395
0.000745869
-0.00291425
0.051815
0.192729
0.108134
-0.0329224
0.023807
-0.0161022
0.000160755
-0.000187071
0.000835172
-0.00325146
0.0539917
0.20592
0.118355
-0.037636
0.0278124
-0.0188933
0.000190602
-0.000224439
0.000956177
-0.00362964
0.0554801
0.221475
0.134816
-0.0436371
0.0323936
-0.0223404
0.000133737
-0.000172266
0.000745365
-0.0027177
0.0457456
0.18271
0.112955
-0.046717
0.0257486
-0.0134751
-7.2377e-06
3.9199e-06
-1.09591e-05
4.04942e-05
-0.000156314
-0.00111893
-0.000946641
0.00046844
-0.000685331
0.000677455
9.041e-06
-3.98221e-06
1.84048e-05
-7.2444e-05
0.000242949
0.00189458
0.0018269
-0.000595577
0.000698619
-0.000750912
-0.000157176
0.00020153
-0.00100857
0.00562586
-0.0467731
-0.20931
-0.135822
0.0246798
-0.0249594
0.0160418
-0.000279716
0.000326718
-0.00162827
0.0088167
-0.0693654
-0.31016
-0.199608
0.0181749
-0.0396747
0.030915
-0.00025592
0.000300755
-0.00156699
0.00883724
-0.071846
-0.305157
-0.183723
0.0152652
-0.0367184
0.0277963
-0.000238811
0.000281827
-0.00151486
0.00875376
-0.0725214
-0.299961
-0.174176
0.0163525
-0.0350381
0.0260156
-0.000247359
0.000293945
-0.00157323
0.00902197
-0.0737556
-0.306147
-0.177018
0.0202526
-0.0370783
0.0275872
-0.000284234
0.000340658
-0.00174852
0.00962229
-0.0749878
-0.322501
-0.192126
0.0260784
-0.0423127
0.0324771
-0.000342014
0.000404914
-0.00196039
0.0101218
-0.0736678
-0.339411
-0.218112
0.0325356
-0.0468191
0.0379947
-0.000253415
0.000320848
-0.00155419
0.00816255
-0.0615948
-0.286
-0.182933
0.0521862
-0.0357594
0.0229328
1.38283e-05
-5.2982e-06
2.33509e-05
-6.63119e-05
-0.000326021
0.000179347
0.00111428
-3.21172e-05
0.000800634
-0.00105771
1.00104e-06
-3.98107e-06
4.44738e-06
2.59027e-05
7.22896e-05
-0.000742504
-0.00248909
-0.000421994
-0.000371397
5.48291e-05
-3.91761e-05
0.000158668
-0.000359921
-0.000694007
0.0417601
0.189792
0.189804
0.0287701
0.0303813
-0.00140242
-9.74647e-05
0.000250201
-0.000557659
-0.0012476
0.0615613
0.27254
0.265483
0.065675
0.0650664
-0.00209418
-9.91356e-05
0.000259987
-0.000605668
-0.0010865
0.0644752
0.269343
0.241993
0.0603664
0.0620616
-0.00080905
-9.55371e-05
0.000263079
-0.00062595
-0.000969676
0.0651627
0.265367
0.229414
0.0529389
0.0572831
0.000115844
-9.96987e-05
0.000268245
-0.000629945
-0.00104197
0.0654392
0.268833
0.233126
0.0473961
0.0573689
0.000523443
-0.000112863
0.000273637
-0.000612679
-0.00128768
0.0644548
0.277227
0.251797
0.0447139
0.061724
0.000680463
-0.000123754
0.000272571
-0.000570818
-0.00148873
0.0594259
0.280047
0.282083
0.0465736
0.0636371
0.000729397
-6.62097e-05
0.000217692
-0.000447718
-0.00115729
0.0493699
0.24042
0.246281
0.00617576
0.0306292
0.000582431
1.61488e-06
-4.19689e-06
1.45047e-06
4.56294e-05
0.000823736
0.00179845
-0.000907583
-0.00112574
-0.000681343
6.80828e-06
-2.07382e-07
-2.73414e-06
7.22863e-06
-8.00617e-05
-0.000284854
0.000257986
0.00323347
0.00117746
-7.12167e-06
0.000308041
1.11656e-05
7.49288e-05
-0.000199873
0.00214056
-0.0729439
-0.326241
-0.313306
-0.0824754
-0.104615
0.00689525
1.96934e-05
0.000121853
-0.000358072
0.00369335
-0.10729
-0.466917
-0.424624
-0.148598
-0.201997
0.00482362
1.78613e-05
0.000102626
-0.000288043
0.00341047
-0.11242
-0.463215
-0.383844
-0.130446
-0.190635
-0.00216293
1.72578e-05
9.34784e-05
-0.000256382
0.00324232
-0.113286
-0.456917
-0.364072
-0.113956
-0.172974
-0.00676167
1.82348e-05
0.000103607
-0.00030616
0.00353364
-0.11291
-0.461649
-0.370713
-0.10346
-0.16769
-0.00796736
2.08095e-05
0.000137074
-0.000451992
0.00427967
-0.109693
-0.472546
-0.400675
-0.100268
-0.172995
-0.00726856
2.58523e-05
0.000191846
-0.000666939
0.00507259
-0.0986371
-0.469811
-0.447125
-0.107878
-0.17424
-0.00598335
1.92244e-05
0.00015002
-0.000517518
0.00399767
-0.0812261
-0.401852
-0.399323
-0.0381995
-0.0914764
-0.00403239
-2.68551e-07
-4.70257e-06
1.53713e-05
-0.000135541
-0.00170528
-0.00466166
-0.000238712
0.00253729
0.00132227
0.000858
-2.40519e-07
-3.26653e-06
6.58292e-06
0.000104643
0.00103267
0.00303628
-0.0021791
-0.0030244
0.00763852
0.038284
7.19898e-06
0.000108186
-0.000471365
0.00143214
0.0928183
0.421274
0.461085
0.199234
0.372891
-0.564616
1.34712e-05
0.000200883
-0.000765803
0.00172134
0.1347
0.586804
0.597535
0.305479
0.61048
-0.555697
1.42322e-05
0.000210549
-0.000822127
0.00225936
0.141871
0.585882
0.535273
0.25753
0.567946
-0.421205
1.43577e-05
0.000209489
-0.000821154
0.00239768
0.142166
0.578353
0.508844
0.226041
0.507791
-0.312473
1.4577e-05
0.000210336
-0.000786179
0.001951
0.138675
0.577779
0.519633
0.210667
0.47362
-0.226209
1.47405e-05
0.000210529
-0.000699804
0.000913318
0.128784
0.575119
0.560548
0.212548
0.462197
-0.163881
1.39952e-05
0.000198184
-0.000533237
-0.00039351
0.105392
0.540009
0.617178
0.238194
0.447505
-0.135148
9.41565e-06
0.000134544
-0.000375943
-0.00038808
0.0849778
0.464908
0.568594
0.128853
0.253771
-0.10822
-2.62735e-07
-3.60153e-06
4.20123e-07
0.00023099
0.00333193
0.0115973
0.00520513
-0.00504426
-0.00539091
0.0669946
6.90845e-08
4.85759e-08
-5.31281e-06
-0.000191592
-0.00218031
-0.00891255
-0.00262675
0.00771989
0.0874412
-0.857654
-1.94479e-06
-9.17052e-06
0.000342332
-0.00402503
-0.132625
-0.596123
-0.658105
-0.316531
-2.02721
6.46682
-3.61611e-06
-1.61674e-05
0.000531788
-0.00519386
-0.190319
-0.819694
-0.81683
-0.436829
-2.74118
7.26288
-4.37776e-06
-2.06389e-05
0.000569746
-0.00600789
-0.200012
-0.823511
-0.727706
-0.337162
-2.55169
6.35679
-4.48892e-06
-1.90754e-05
0.000545584
-0.00597263
-0.198437
-0.812068
-0.695113
-0.291715
-2.28131
5.3747
-4.11796e-06
-1.213e-05
0.000471636
-0.00488146
-0.189419
-0.801944
-0.712618
-0.278116
-2.03326
4.35942
-2.97366e-06
3.58489e-06
0.000319567
-0.00270381
-0.169075
-0.778033
-0.765997
-0.295079
-1.81987
3.43025
-5.80651e-07
3.20935e-05
5.12158e-05
0.000199533
-0.12702
-0.691118
-0.82605
-0.352908
-1.62188
2.74611
-5.92251e-07
2.20758e-05
1.03712e-05
0.0004135
-0.0984534
-0.586001
-0.783239
-0.20434
-1.03536
1.94596
2.03909e-08
-7.64069e-07
1.79929e-06
-0.000436051
-0.00573776
-0.0229956
-0.0175635
0.00799196
0.181584
-1.18129
-7.67186e-08
-4.85991e-07
1.19888e-05
0.000314828
0.00421949
0.0197891
0.0187208
0.0202813
-0.776207
5.9673
2.33938e-06
2.53685e-05
-0.000454461
0.00988365
0.179517
0.807827
0.909352
0.122168
8.00183
-26.4294
5.70063e-06
5.84526e-05
-0.000757365
0.0135911
0.252218
1.08819
1.08991
0.154162
10.6569
-32.8646
6.27204e-06
6.04446e-05
-0.000745886
0.0147161
0.263739
1.09973
0.971909
-0.012939
9.9312
-29.0981
6.2078e-06
5.75006e-05
-0.000687195
0.0141532
0.257596
1.07968
0.933437
-0.0334022
8.79142
-24.6969
6.16797e-06
5.60581e-05
-0.000624683
0.0118878
0.237935
1.04567
0.957486
0.0115368
7.6075
-20.5586
5.98314e-06
5.41933e-05
-0.000522861
0.00789543
0.199582
0.973972
1.0165
0.105519
6.52172
-17.0308
4.8075e-06
4.35666e-05
-0.000299624
0.00241768
0.128546
0.789527
1.05266
0.250728
5.57282
-14.121
2.51044e-06
2.23716e-05
-0.000168617
0.00103547
0.0926099
0.651101
1.01674
0.101598
3.50168
-8.68458
-9.48814e-08
-6.56372e-07
1.15356e-05
0.000725588
0.00917898
0.0409773
0.0475511
0.0336901
-1.32169
7.27598
-4.06923e-08
-8.15103e-07
-1.56283e-05
-0.000535034
-0.00752191
-0.0383104
-0.0524793
-0.202039
3.54322
-22.7399
-5.35314e-07
-5.66483e-06
0.000135082
-0.0178813
-0.246669
-1.10908
-1.2824
1.21307
-14.6407
55.7867
-1.72294e-06
-1.29315e-05
0.000262658
-0.0245625
-0.338814
-1.46512
-1.50455
1.54222
-20.1257
78.715
-1.87928e-06
-1.27928e-05
0.000183467
-0.0258554
-0.350616
-1.48543
-1.35948
1.77114
-18.505
69.7052
-1.80393e-06
-1.15377e-05
0.000123113
-0.0241394
-0.335468
-1.44609
-1.30849
1.61278
-16.3076
58.6421
-1.77529e-06
-1.01459e-05
0.000118949
-0.0196466
-0.298311
-1.36627
-1.32446
1.30555
-14.2939
49.1061
-1.70276e-06
-7.56436e-06
0.000122125
-0.0124489
-0.233236
-1.21173
-1.35912
0.945489
-12.6149
41.5646
-1.18886e-06
-1.31228e-06
2.38555e-05
-0.0027015
-0.122261
-0.871111
-1.30728
0.595484
-11.0894
34.6652
-5.18367e-07
-1.16232e-07
-7.35287e-06
-0.000411288
-0.0773289
-0.678401
-1.26254
0.628092
-6.24634
16.0359
-4.0367e-08
-1.18784e-06
-2.93098e-05
-0.00111018
-0.0134154
-0.0663744
-0.106639
-0.285904
4.73107
-25.8229
6.83054e-08
1.14051e-06
2.17089e-05
0.000958309
0.0127381
0.0703904
0.111283
0.362233
-5.61561
56.0596
1.38474e-06
3.21156e-05
0.000635843
0.0306945
0.336294
1.50757
1.88316
-3.54888
22.3456
-61.0658
2.00112e-06
4.25711e-05
0.000883712
0.0422611
0.450432
1.93864
2.22322
-4.00289
29.7426
-100.036
2.41797e-06
4.8783e-05
0.00105598
0.0434708
0.459153
1.96427
2.07168
-4.40387
28.3095
-87.7533
2.59222e-06
4.99128e-05
0.00102882
0.0395733
0.428129
1.88655
1.9771
-4.05581
25.4363
-71.9617
2.36125e-06
4.29584e-05
0.000788701
0.0313564
0.363763
1.72476
1.92121
-3.43482
22.5651
-59.6373
1.79598e-06
2.9834e-05
0.000409102
0.0191851
0.260835
1.43517
1.83733
-2.84228
20.1223
-51.0475
1.07919e-06
1.46496e-05
3.90499e-05
0.00307713
0.0979566
0.861645
1.56105
-2.4612
17.9443
-41.7043
5.6707e-07
6.72094e-06
-1.90344e-05
-0.000210915
0.0483257
0.609086
1.45381
-2.58437
11.7803
-7.90668
1.43398e-07
3.28794e-06
6.33908e-05
0.00151958
0.0176617
0.0980519
0.186398
0.739726
-6.32009
60.9308
4.98227e-09
3.30704e-07
-2.05912e-05
-0.00180052
-0.0209255
-0.127223
-0.275534
0.651991
-16.7028
-106.59
-6.30875e-06
-0.000149522
-0.00232311
-0.050045
-0.461643
-2.06502
-2.59072
4.32755
-45.1101
30.1087
-1.07716e-05
-0.000226613
-0.003483
-0.0686714
-0.604279
-2.57461
-3.10883
2.81515
-43.4084
72.9501
-1.26042e-05
-0.000249905
-0.00374989
-0.0691008
-0.604121
-2.59128
-3.03393
3.06356
-42.3097
61.701
-1.26459e-05
-0.000239581
-0.00342481
-0.0612715
-0.547081
-2.44328
-2.87103
3.70883
-43.457
47.1741
-1.09198e-05
-0.000195458
-0.00261047
-0.0469594
-0.442687
-2.14819
-2.64845
4.55889
-44.2829
37.552
-7.70254e-06
-0.000124682
-0.00144544
-0.0272199
-0.288925
-1.65588
-2.31956
5.74418
-45.0087
32.8287
-3.58711e-06
-4.02111e-05
-0.0001145
-0.00216984
-0.063041
-0.75377
-1.66309
6.88661
-46.5621
25.104
-1.58648e-06
-1.12689e-05
9.59774e-05
0.000744808
-0.0196119
-0.454295
-1.49137
8.38487
-46.1468
-17.6097
-1.80816e-07
-5.76598e-06
-0.000109199
-0.00180473
-0.0205386
-0.132057
-0.284337
1.60958
-14.8446
-113.499
-5.72607e-09
-1.22903e-06
6.55223e-05
0.00339023
0.0344126
0.220863
0.630701
-10.4406
93.4384
157.352
9.31047e-06
0.000371682
0.00588529
0.0813203
0.641979
2.87451
2.51629
-18.6567
176.052
33.0678
1.83351e-05
0.000618771
0.00893039
0.1111
0.822078
3.44156
3.14272
-14.4929
194.562
2.09387
2.14283e-05
0.000664173
0.00922948
0.109495
0.803121
3.40763
3.28454
-15.1817
195.302
7.1445
2.06341e-05
0.000609622
0.00816
0.0948749
0.704865
3.13458
3.16605
-16.9971
193.08
12.615
1.70001e-05
0.000479986
0.00609978
0.0707334
0.54259
2.63411
2.85018
-18.8824
186.736
11.775
1.1126e-05
0.00029098
0.00334407
0.0393973
0.321199
1.85654
2.38311
-19.4904
178.399
5.0119
3.71753e-06
5.69872e-05
0.000155292
0.00176155
0.0222254
0.527711
1.4365
-17.2507
168.328
3.04526
9.86377e-07
5.24108e-07
-8.44962e-05
0.00178398
0.00693674
0.257641
1.52094
-15.038
145.556
41.6551
1.32178e-07
7.9204e-06
0.000163236
0.00186291
0.0202926
0.159244
0.504287
-9.51781
63.937
160.262
-4.05294e-08
-4.51998e-06
-0.000367133
-0.00657088
-0.0580465
-0.377424
-1.48429
16.2864
-133.426
-160.248
-1.12777e-05
-0.000882933
-0.0134935
-0.131911
-0.8994
-4.29766
-0.205001
-82.0752
-168.917
-104.344
-2.19669e-05
-0.00147341
-0.0199045
-0.176133
-1.12208
-4.91769
-1.15638
-81.8211
-177.391
-96.5559
-2.39331e-05
-0.00153579
-0.0198306
-0.168974
-1.06672
-4.74253
-1.99587
-77.3589
-184.675
-88.1492
-2.20639e-05
-0.00136378
-0.0170437
-0.142314
-0.90414
-4.2251
-2.2113
-73.9654
-182.294
-72.077
-1.77408e-05
-0.00103771
-0.0124597
-0.102177
-0.658715
-3.37256
-2.06107
-74.5279
-172.02
-46.5856
-1.13668e-05
-0.000596422
-0.00673575
-0.0530529
-0.34749
-2.14282
-1.80673
-76.3156
-157.69
-11.0636
-3.00372e-06
-5.96172e-05
-0.000421196
0.00135342
0.030184
-0.219832
-0.54432
-74.2165
-138.497
25.3845
-5.32384e-07
1.03795e-05
-0.0007316
-0.00629365
-0.0113875
-0.114758
-1.45431
-71.4691
-102.734
24.2664
-5.14748e-08
-1.19989e-05
-0.000193085
-0.00154357
-0.0156049
-0.159528
-1.07745
-0.00211444
-41.179
-87.7129
1.40759e-07
2.04352e-05
0.000677526
0.00938153
0.100658
0.691333
-0.354779
44.5952
-52.1423
340.856
1.36789e-05
0.000893759
0.0146401
0.163521
1.30876
7.19634
-1.93014
324.298
-175.051
578.43
2.38579e-05
0.00143562
0.0209452
0.21032
1.5786
7.8443
-4.59083
416.152
-231.41
599.496
2.43328e-05
0.00142935
0.0199581
0.193491
1.45234
7.34636
-3.16275
408.973
-233.546
600.617
2.07721e-05
0.00120494
0.0163774
0.154608
1.17881
6.32813
-1.53928
369.261
-228.752
623.173
1.48592e-05
0.000856543
0.0112994
0.101713
0.797649
4.79498
0.574051
306.794
-221.96
665.865
7.55456e-06
0.000447133
0.00558803
0.0418901
0.347001
2.73905
2.80915
231.544
-210.858
724.818
-6.59667e-07
2.96839e-05
0.000447931
-0.0134919
-0.128959
-0.135492
1.98903
155.007
-194.552
785.967
-1.1039e-06
6.96103e-05
0.001919
0.0034727
-0.00982218
0.14436
4.93822
82.6373
-174.139
793.163
1.70383e-08
2.51347e-06
-1.40708e-05
0.000432789
0.0105277
0.138509
0.914136
27.8741
-100.01
533.776
-2.57468e-07
-3.03363e-05
-0.000833681
-0.0117098
-0.161218
-1.63036
-10.5447
52.6839
242.793
741.124
-1.78199e-05
-0.00123055
-0.0208175
-0.21171
-1.75186
-11.9881
-56.7619
535.394
181.711
903.574
-3.25971e-05
-0.00198369
-0.027869
-0.253713
-2.01433
-12.7153
-41.0657
670.371
133.763
900.772
-3.28925e-05
-0.00193488
-0.025355
-0.220482
-1.76209
-11.535
-41.9373
655.684
141.085
892.86
-2.82134e-05
-0.00162237
-0.0198299
-0.162882
-1.32547
-9.43664
-44.5703
603.151
147.277
910.94
-2.10859e-05
-0.00117422
-0.0126187
-0.0908976
-0.76643
-6.4869
-45.3357
530.319
144.78
950.801
-1.27363e-05
-0.000660572
-0.00472315
-0.014278
-0.157059
-2.8815
-40.943
445.304
133.235
1011.17
-3.88799e-06
-0.000172791
0.00167318
0.0448668
0.363852
1.22531
-26.0967
351.607
122.043
1083.29
-3.61145e-06
-0.000224636
0.000294361
0.0285327
0.180215
0.37426
-18.2764
213.225
140.65
1112.6
-2.1039e-10
7.30113e-07
-6.77708e-05
-0.00171227
-0.0114776
-0.10732
-3.13324
7.00841
98.1741
949.708
2.23066e-07
2.15913e-05
0.000639448
0.0107824
0.182448
2.28751
20.3075
158.171
597.901
866.862
2.20948e-05
0.0015328
0.0241907
0.238352
2.12796
15.6447
141.573
770.963
428.002
1034.09
3.82847e-05
0.00215142
0.0267699
0.249015
2.26778
17.1894
176.514
922.784
328.119
1060.11
3.69178e-05
0.00193806
0.021462
0.192683
1.81474
14.5111
158.535
905.78
327.757
1058.17
3.06816e-05
0.00149081
0.0138472
0.115628
1.16585
10.2129
126.302
847.524
343.364
1073.93
2.22973e-05
0.000929593
0.00504315
0.0284058
0.412696
4.88473
84.1878
762.203
370.293
1101.25
1.30082e-05
0.000330196
-0.00371829
-0.0560798
-0.329369
-0.613684
37.2369
659.16
415.973
1127.96
4.59259e-06
-0.000129569
-0.00892784
-0.102764
-0.787498
-5.03925
-11.5004
555.401
450.908
1155.86
5.07154e-06
-8.19695e-05
-0.0084902
-0.0969639
-0.606628
-2.73508
-24.5493
417.886
418.232
1203.56
8.71232e-08
1.05583e-05
0.000383718
0.00468671
0.0228344
-0.117802
-4.11793
58.2338
316.202
1148.65
-1.56569e-07
-1.49052e-05
-0.000713769
-0.0129739
-0.165542
-0.921738
9.8339
157.405
740.67
1078.3
-2.91645e-05
-0.00169141
-0.0225535
-0.225852
-2.30299
-12.3494
126.728
918.375
701.941
1066.85
-4.15961e-05
-0.00188942
-0.0190242
-0.189829
-2.04018
-8.91525
190.412
1143.95
637.373
1041.33
-3.69575e-05
-0.0014793
-0.0116356
-0.114061
-1.35276
-4.73928
190.8
1159.68
640.715
1026.1
-2.79858e-05
-0.000903373
-0.00303567
-0.0260715
-0.544017
-0.425247
185.121
1143.44
649.403
1024.96
-1.71853e-05
-0.000257203
0.00590194
0.0645501
0.299555
3.93777
178.59
1117.03
643.305
1037.98
-5.81641e-06
0.000374022
0.0136959
0.141764
1.04083
7.71869
167.363
1058.3
624.745
1070.52
2.97658e-06
0.00074606
0.0163066
0.162929
1.28047
8.68111
143.619
936.192
635.864
1111.41
4.95867e-06
0.000833565
0.0174865
0.170847
1.22977
4.48109
43.4202
682.713
707.882
1140.75
-2.12757e-07
-2.06333e-05
-0.000328497
-0.0021016
-0.0150018
-0.213688
0.315117
82.7743
708.995
1172.94
5.63336e-07
6.77184e-05
0.00199659
0.0338003
0.549596
7.60758
68.9086
390.525
1152.62
917.863
2.10445e-05
0.000946863
0.0102302
0.139137
2.70107
46.2091
492.553
1176.46
738.872
1043.63
2.19791e-05
0.000663489
0.00387138
0.0819859
2.30919
47.6869
541.859
1292.07
615.206
1079.99
1.42992e-05
0.000193245
-0.00293064
0.00441504
1.37798
38.358
477.242
1240.05
609.585
1088.2
4.50832e-06
-0.000322703
-0.00982446
-0.0789397
0.280589
26.3924
397.361
1155.95
628.582
1103.8
-5.64579e-06
-0.000819942
-0.0160171
-0.156692
-0.813604
13.7834
313.424
1073.11
681.286
1112.91
-1.46462e-05
-0.00120116
-0.0198019
-0.207021
-1.64595
2.72474
237.677
1025.32
763.904
1097.34
-1.89221e-05
-0.00124627
-0.0180417
-0.192385
-1.74624
-2.4705
188.862
991.552
820.954
1076.88
-2.049e-05
-0.00127777
-0.0179045
-0.19088
-1.90871
-8.08082
118.021
783.377
827.247
1105.12
-1.7415e-07
-2.15648e-05
-0.000913352
-0.0156074
-0.167924
-0.52165
12.9042
153.621
692.744
1240.84
2.907e-07
3.58693e-05
0.00105395
0.0189128
0.335764
5.12998
52.2009
285.804
1219.34
989.666
3.28959e-06
0.000216926
0.00414831
0.0864216
2.09044
39.1569
457.625
1219.49
873.433
1008.78
6.61685e-06
0.000392645
0.00628856
0.130091
2.98137
52.7712
581.363
1489.1
755.333
1017
1.09135e-05
0.000614638
0.00949643
0.17461
3.57337
57.7571
593.418
1539.43
783.38
995.479
1.43735e-05
0.000794905
0.0122578
0.209157
3.9441
59.9
591.896
1557.63
812.735
970.285
1.66405e-05
0.00090718
0.0139666
0.227388
4.06236
59.6595
581.513
1543.6
800.321
954.416
1.70881e-05
0.000897857
0.013473
0.214217
3.75333
55.3075
548.231
1472.48
761.584
964.164
1.40232e-05
0.000671683
0.00946004
0.154392
2.82864
44.6999
482.513
1371.92
765.296
987.652
1.14193e-05
0.000520563
0.00705035
0.112905
2.04906
33.206
384.851
1177.77
908.026