/*--------------------------------*- C++ -*----------------------------------*\
| =========                 |                                                 |
| \\      /  F ield         | OpenFOAM: The Open Source CFD Toolbox           |
|  \\    /   O peration     | Version:  1.7.x                                 |
|   \\  /    A nd           | Web:      www.OpenFOAM.com                      |
|    \\/     M anipulation  |                                                 |
\*---------------------------------------------------------------------------*/
FoamFile
{
    version     2.0;
    format      ascii;
    class       surfaceScalarField;
    location    "0.3";
    object      phi;
}
// * * * * * * * * * * * * * * * * * * * * * * * * * * * * * * * * * * * * * //

dimensions      [0 3 -1 0 0 0 0];

internalField   nonuniform List<scalar> 
22300
(
0.000683759
0.000813707
0.0485025
0.000178262
0.000744518
0.049761
3.67694e-05
0.000719264
0.0494222
3.13715e-05
0.000763832
0.0492416
1.98793e-05
0.000777808
0.0492337
2.30331e-05
0.000786279
0.0492106
-1.54091e-07
0.000794499
0.0492287
-0.000162305
0.000779412
0.0493827
-0.000641697
0.000783153
0.0496962
0.00075409
0.0486042
0.000779906
0.000400339
0.0496335
0.000131614
0.00038503
0.0510078
-5.94097e-05
0.000345652
0.0505646
3.36509e-05
0.000354959
0.0503158
0.000113534
0.000364109
0.0503338
0.000215516
0.000369963
0.0503143
0.000294225
0.000380387
0.0503354
0.000120124
0.000385219
0.0505683
-0.000467061
0.000391016
0.0509793
0.000358621
0.0499284
0.0007954
0.000203307
0.0494016
0.000130218
0.000218036
0.0508322
-6.3144e-05
0.000191293
0.0503477
4.10015e-05
0.0001835
0.0500673
0.000134124
0.000184212
0.0500868
0.000250829
0.000187187
0.0500661
0.000347834
0.000195087
0.0500883
0.000189873
0.000203294
0.0503399
-0.000418684
0.000207082
0.0507925
0.000184761
0.0497552
0.00078859
9.27485e-05
0.049322
0.00012289
0.000106477
0.0507773
-6.40186e-05
9.54725e-05
0.0502827
4.42195e-05
8.78165e-05
0.0499874
0.000139089
8.61945e-05
0.0500031
0.000257508
8.7725e-05
0.049981
0.000356347
9.25654e-05
0.0500037
0.000202077
9.82081e-05
0.0502594
-0.000409758
9.9284e-05
0.0507196
8.73584e-05
0.0496876
0.000785251
7.77278e-06
0.0492997
0.000117488
9.37336e-06
0.0507649
-6.63762e-05
9.8353e-06
0.0502695
4.48141e-05
1.00657e-05
0.0499666
0.000140874
9.97481e-06
0.0499802
0.000260105
1.07159e-05
0.0499578
0.000359422
1.20186e-05
0.0499812
0.000205458
1.27748e-05
0.0502394
-0.000408562
1.14666e-05
0.0507018
8.63188e-06
0.0496702
0.000785712
-7.78719e-05
0.0492999
0.000116639
-8.86845e-05
0.0507671
-6.76678e-05
-7.71251e-05
0.0502713
4.44029e-05
-6.90152e-05
0.049967
0.000141333
-6.75338e-05
0.0499806
0.000261236
-6.76808e-05
0.0499585
0.000361174
-7.00742e-05
0.0499822
0.000207129
-7.41872e-05
0.050241
-0.000408132
-7.76345e-05
0.0507044
-7.12801e-05
0.0496718
0.000789844
-0.000190258
0.0493225
0.00012043
-0.000203156
0.0507839
-6.77488e-05
-0.000176055
0.0502871
4.30828e-05
-0.000167761
0.0499879
0.000140447
-0.000168373
0.0500035
0.00026077
-0.000170166
0.0499822
0.000361389
-0.000175981
0.0500053
0.000206983
-0.00018261
0.0502628
-0.000408309
-0.000188207
0.0507259
-0.00017098
0.0496914
0.000797469
-0.000390487
0.0494028
0.000126687
-0.000374996
0.0508426
-6.87034e-05
-0.000334688
0.050354
3.94622e-05
-0.000343437
0.0500675
0.000136225
-0.000352361
0.0500872
0.000255862
-0.000357363
0.0500676
0.000355787
-0.000366371
0.0500905
0.000197869
-0.000369854
0.0503452
-0.000416142
-0.000376735
0.0508025
-0.000348018
0.0497609
0.000783417
-0.000808944
0.049635
0.000128112
-0.000739788
0.0510201
-6.58236e-05
-0.000712853
0.0505721
3.21241e-05
-0.000757545
0.0503162
0.000116419
-0.000771531
0.0503349
0.000222147
-0.000779621
0.0503165
0.000304767
-0.000787361
0.0503384
0.000131505
-0.000771567
0.050575
-0.000462751
-0.000774928
0.0509924
-0.000748126
0.0499374
0.000683862
0.0485072
0.00017515
0.0497689
3.3678e-05
0.0494286
3.13493e-05
0.0492448
2.24607e-05
0.0492374
2.79096e-05
0.0492149
6.75922e-06
0.0492338
-0.000155173
0.0493904
-0.000636652
0.0497066
0.0486152
0.00111394
0.00118197
0.0462066
0.000811949
0.0011778
0.0488852
0.000412167
0.00128278
0.0485392
-2.6122e-05
0.00130189
0.048378
-0.000321392
0.00127564
0.0482533
-0.00061076
0.00127687
0.0482231
-0.000933977
0.00126126
0.0482907
-0.00124218
0.00124112
0.0484498
-0.00149733
0.00123258
0.0487188
0.00127543
0.0458315
0.000949947
0.00074892
0.0491166
0.000858077
0.000670726
0.0516067
0.000587864
0.000788465
0.0513292
2.31475e-05
0.000848773
0.0513337
-0.000424525
0.000834636
0.0512225
-0.00085579
0.000837382
0.0511851
-0.00131795
0.00081822
0.0512406
-0.00161821
0.000781644
0.051328
-0.00171519
0.00076043
0.0515485
0.000832339
0.0486563
0.000890809
0.000437023
0.0488227
0.000856317
0.000364963
0.0511724
0.000619519
0.000437065
0.0509359
3.04455e-05
0.000487967
0.0510172
-0.000442451
0.000488646
0.0509057
-0.000896772
0.000491283
0.0508665
-0.00138481
0.000478892
0.0509157
-0.00168828
0.000453845
0.0509712
-0.0017614
0.000441565
0.0511845
0.000487102
0.048339
0.00088573
0.000217577
0.0486557
0.000873532
0.000180678
0.0509737
0.000636921
0.000209917
0.0507465
3.26717e-05
0.000236467
0.0508432
-0.000444995
0.000240224
0.0507292
-0.000904558
0.000241755
0.0506901
-0.00139896
0.000235385
0.0507416
-0.00170254
0.000222656
0.0507941
-0.0017709
0.000218513
0.051011
0.000239207
0.0481646
0.000884383
2.63875e-05
0.0486065
0.000886023
2.27366e-05
0.0509212
0.00064872
2.50346e-05
0.0506917
3.57886e-05
2.62134e-05
0.0507897
-0.000445233
2.66871e-05
0.0506747
-0.000907638
2.66555e-05
0.0506353
-0.00140488
2.51249e-05
0.0506887
-0.00170747
2.28133e-05
0.0507418
-0.00177153
2.32691e-05
0.0509611
2.9243e-05
0.0481086
0.000883122
-0.000167686
0.0486109
0.000887481
-0.000137494
0.050923
0.000651557
-0.000161873
0.0506941
3.7467e-05
-0.000186258
0.0507936
-0.000444942
-0.000189171
0.0506788
-0.00090849
-0.000190693
0.0506394
-0.00140687
-0.000187172
0.0506928
-0.00170908
-0.000178866
0.0507449
-0.0017714
-0.000173912
0.0509639
-0.000182794
0.0481124
0.000882057
-0.000394418
0.0486672
0.000877903
-0.00032719
0.0509777
0.000645276
-0.000395207
0.0507531
3.77768e-05
-0.000444777
0.0508539
-0.000444109
-0.000444621
0.0507408
-0.000906943
-0.00044743
0.0507017
-0.00140457
-0.000437404
0.0507531
-0.00170733
-0.000416058
0.0508028
-0.0017709
-0.000402993
0.0510185
-0.000437864
0.0481756
0.000884532
-0.000715922
0.0488397
0.000862249
-0.000638804
0.0511765
0.000631731
-0.000755539
0.0509449
3.74534e-05
-0.000816249
0.0510333
-0.000441184
-0.000801515
0.0509228
-0.000900301
-0.0008046
0.0508838
-0.00139324
-0.000786829
0.0509328
-0.00169584
-0.000751952
0.0509837
-0.00176171
-0.000729136
0.0511946
-0.000794132
0.0483554
0.0009408
-0.00116162
0.0491399
0.00086346
-0.0011557
0.0516143
0.000601885
-0.00126341
0.0513416
3.10474e-05
-0.00128374
0.0513545
-0.000423466
-0.00125664
0.0512445
-0.000860576
-0.00125828
0.0512073
-0.00132854
-0.00124312
0.0512626
-0.00162812
-0.00122275
0.0513453
-0.00171669
-0.00121159
0.0515635
-0.00125252
0.0486791
0.00111065
0.0462349
0.000817286
0.0489066
0.000420985
0.0485615
-2.153e-05
0.0484036
-0.000320383
0.0482796
-0.000613404
0.0482497
-0.000940837
0.0483181
-0.00124952
0.0484763
-0.00149968
0.0487451
0.045863
0.0011768
0.00147199
0.0435578
0.000433166
0.00163015
0.0479986
-6.1325e-05
0.00147294
0.0475608
-0.000184806
0.00139245
0.047109
-0.000304161
0.00142072
0.046952
-0.000388324
0.00142814
0.0468791
-0.000508048
0.00146996
0.0469404
-0.000843312
0.00153538
0.0472497
-0.00125958
0.00157966
0.0475554
0.00140985
0.043162
0.00141456
0.0012121
0.0479619
0.000465038
0.00139362
0.0527928
-0.000223682
0.00123412
0.0522567
-0.000258515
0.00112018
0.0516408
-0.000239125
0.00113157
0.0514923
-0.000192531
0.00113926
0.0514274
-0.000173917
0.00118499
0.051507
-0.000525668
0.0012693
0.0519459
-0.00110896
0.00132481
0.0523866
0.00115562
0.0478016
0.00147377
0.000787583
0.0477735
0.000452683
0.000905602
0.0526815
-0.000285752
0.000814708
0.0520938
-0.000281461
0.000738397
0.0513947
-0.000223259
0.000735504
0.0512435
-0.000141739
0.00074096
0.0511833
-9.1376e-05
0.000770668
0.0512796
-0.000449768
0.000823377
0.0517755
-0.00106352
0.000851839
0.0522712
0.000755555
0.0476756
0.00148558
0.000397634
0.0475601
0.00042438
0.000448918
0.0524916
-0.000319151
0.000415207
0.0518895
-0.000287447
0.00038153
0.0511684
-0.000214711
0.000376739
0.0510153
-0.000118969
0.000380238
0.0509551
-5.6591e-05
0.000395389
0.0510545
-0.000420759
0.000419578
0.0515621
-0.00105488
0.000430558
0.0520664
0.000392743
0.0474726
0.00149023
4.61241e-05
0.0474678
0.000405767
4.94865e-05
0.0524051
-0.000337984
4.70548e-05
0.0518036
-0.000290416
4.69839e-05
0.0510767
-0.000209565
4.70567e-05
0.0509235
-0.000105907
4.84567e-05
0.0508634
-3.67845e-05
5.19229e-05
0.0509631
-0.000406306
5.68768e-05
0.051474
-0.00105478
5.95094e-05
0.0519807
5.36077e-05
0.047393
0.00149138
-0.000308978
0.0474746
0.0004047
-0.000353656
0.0524128
-0.000340174
-0.000325277
0.0518113
-0.000290875
-0.000291791
0.051083
-0.000208424
-0.000286693
0.0509301
-0.000103183
-0.000287578
0.0508702
-3.25084e-05
-0.000296214
0.0509703
-0.000402872
-0.000310641
0.0514828
-0.00105343
-0.000316492
0.0519904
-0.000290927
0.0474035
0.00148899
-0.000710889
0.0475801
0.000421197
-0.000823021
0.0525149
-0.000325457
-0.00073732
0.0519118
-0.000288662
-0.000661063
0.0511864
-0.000211411
-0.00065736
0.0510342
-0.000111275
-0.00066055
0.0509746
-4.47712e-05
-0.000684758
0.0510752
-0.000410818
-0.000728915
0.0515871
-0.00105052
-0.000752937
0.0520947
-0.000668661
0.0475028
0.00147981
-0.00115567
0.0478047
0.000448937
-0.0013345
0.0527189
-0.000294744
-0.00117756
0.0521288
-0.000283085
-0.00106191
0.0514224
-0.000218197
-0.00107224
0.0512727
-0.000130222
-0.00107804
0.0512134
-7.38236e-05
-0.00112021
0.0513119
-0.000434249
-0.0011998
0.051815
-0.00105601
-0.00125327
0.0523166
-0.00109243
0.0477232
0.00142356
-0.00144355
0.0480042
0.000462293
-0.00160309
0.0528442
-0.000234141
-0.00144402
0.0523045
-0.000260161
-0.0013607
0.0516793
-0.000231856
-0.00138851
0.0515325
-0.000177306
-0.00139454
0.0514693
-0.000151705
-0.00143506
0.0515519
-0.000505589
-0.0015001
0.0519995
-0.00109848
-0.00154553
0.0524486
-0.00137782
0.047866
0.0011808
0.0436106
0.000429577
0.0480547
-6.763e-05
0.0476147
-0.000182773
0.047158
-0.000294994
0.0470033
-0.000372783
0.0469329
-0.000486586
0.0469968
-0.000822542
0.0473122
-0.00124802
0.0476251
0.0432372
0.000887559
0.00112367
0.0415466
0.000708807
0.0011057
0.0470717
0.000230007
0.00127036
0.0467692
-0.000397109
0.0013857
0.0463504
-0.000813497
0.00135568
0.0460127
-0.00118482
0.00136128
0.0458891
-0.0015825
0.00133189
0.0460062
-0.00183087
0.00124535
0.0462527
-0.00168962
0.00120868
0.0462055
0.00129489
0.0401775
0.000658532
0.000937617
0.0474894
0.000688753
0.00091169
0.0529566
0.000417416
0.0010681
0.0527303
-0.000290398
0.00120406
0.0525302
-0.000877292
0.00118724
0.0522476
-0.00141343
0.00119313
0.0521317
-0.00198398
0.00116672
0.0522427
-0.00230086
0.00107618
0.0524319
-0.00196973
0.00102616
0.052238
0.00108851
0.0460382
0.000556874
0.000679001
0.0474752
0.000676275
0.000654653
0.0528192
0.000466978
0.000743445
0.0526277
-0.000262832
0.000827095
0.0525015
-0.000888099
0.000827795
0.0522282
-0.00145346
0.000832252
0.0521095
-0.00204534
0.000818655
0.0522196
-0.00236331
0.000772699
0.0523969
-0.00199011
0.000757271
0.0521669
0.000784746
0.0459892
0.000545497
0.000393676
0.0472999
0.000694627
0.000382742
0.0526144
0.000490646
0.000412193
0.0524248
-0.000259663
0.000445987
0.0522998
-0.000891096
0.000451177
0.0520233
-0.00146159
0.000454263
0.0519036
-0.00206055
0.000449905
0.0520222
-0.00237784
0.00043467
0.0522174
-0.00199541
0.00043546
0.0520058
0.000440435
0.0458215
0.000544089
6.6004e-05
0.0472514
0.000708085
6.5261e-05
0.0525586
0.000504638
6.77275e-05
0.0523515
-0.000258224
6.81798e-05
0.0522174
-0.000891966
7.00253e-05
0.0519384
-0.00146473
7.12402e-05
0.0518192
-0.00206769
7.07719e-05
0.0519452
-0.00238276
6.79685e-05
0.0521558
-0.00199469
6.68211e-05
0.0519612
7.25187e-05
0.0457662
0.000542451
-0.000269008
0.0472672
0.000708755
-0.00025959
0.0525714
0.000507343
-0.000282924
0.0523634
-0.00025616
-0.000315362
0.0522301
-0.00089031
-0.000317182
0.0519515
-0.00146385
-0.000317808
0.0518328
-0.00206769
-0.000314277
0.0519592
-0.00238257
-0.000304772
0.0521704
-0.00199411
-0.000308452
0.0519772
-0.000301341
0.0457833
0.000540449
-0.000572646
0.0473433
0.00069684
-0.000550425
0.0526493
0.000498685
-0.000631933
0.0524589
-0.000253691
-0.000713673
0.0523371
-0.000886259
-0.000711915
0.0520615
-0.00145884
-0.000714104
0.0519435
-0.00206023
-0.000701147
0.0520634
-0.00237751
-0.000660163
0.0522598
-0.00199421
-0.000647888
0.0520508
-0.000662515
0.0458697
0.000547474
-0.000857025
0.0475416
0.000678404
-0.000833103
0.0528706
0.000479229
-0.0009836
0.0526796
-0.000253248
-0.00111918
0.0525604
-0.000880319
-0.00110099
0.0522889
-0.00144872
-0.00110527
0.0521729
-0.0020443
-0.00107895
0.0522853
-0.00236322
-0.000989562
0.0524633
-0.00198894
-0.000939823
0.0522343
-0.000991045
0.0460628
0.000645129
-0.00107649
0.0475786
0.00069007
-0.00105894
0.0530251
0.000432823
-0.00122274
0.0528008
-0.000277802
-0.00134027
0.052611
-0.000868583
-0.00130892
0.0523312
-0.00140935
-0.001314
0.0522188
-0.00198474
-0.00128452
0.0523328
-0.00230245
-0.00119535
0.052523
-0.00196861
-0.00115393
0.0523289
-0.00123408
0.0461404
0.000878961
0.0416551
0.000713746
0.047161
0.000244986
0.0468607
-0.000386281
0.046449
-0.000805801
0.0461139
-0.00118111
0.0459942
-0.00158565
0.0461169
-0.00183678
0.0463679
-0.00168947
0.0463238
0.0403136
0.000802302
0.00150666
0.0392376
-0.000148564
0.00168987
0.0463327
-0.000795245
0.00148866
0.0459272
-0.000895128
0.00133189
0.0451184
-0.000888321
0.00137184
0.044634
-0.000796952
0.00139554
0.0444022
-0.000702931
0.00146603
0.0444462
-0.000880309
0.00162328
0.0448068
-0.00120403
0.00175124
0.044778
0.00155096
0.0374225
0.00114139
0.00138977
0.0464649
0.000139425
0.0015885
0.0540599
-0.000795101
0.00141081
0.0537427
-0.000930698
0.00123156
0.0527662
-0.00085286
0.00123986
0.0523017
-0.000683461
0.00126127
0.0520965
-0.000500434
0.00133211
0.0521936
-0.000622003
0.00148931
0.0526874
-0.00100763
0.00161653
0.0527583
0.0014419
0.0451397
0.00120073
0.000986122
0.0466781
0.000146068
0.0011201
0.0543422
-0.00085808
0.00100997
0.0540327
-0.000958638
0.000898551
0.052935
-0.00083766
0.000891357
0.0524558
-0.000628691
0.000904675
0.0522571
-0.000417152
0.000951228
0.0523889
-0.00053908
0.00104491
0.0529632
-0.000935965
0.00110936
0.053071
0.00100736
0.0454878
0.00119884
0.000536854
0.0465503
0.00011067
0.000599191
0.0542235
-0.000905054
0.000554603
0.0538958
-0.000972904
0.000509456
0.0527567
-0.000828265
0.00050219
0.0522678
-0.00059721
0.000509293
0.0520679
-0.000366747
0.000532528
0.0522104
-0.0004888
0.000573098
0.0528113
-0.000904398
0.000597547
0.0529332
0.000561545
0.0453629
0.00119479
9.26098e-05
0.0465008
9.04493e-05
9.51666e-05
0.0541669
-0.000928473
9.26982e-05
0.0538323
-0.000978181
9.40696e-05
0.0526825
-0.000821541
9.47791e-05
0.0521892
-0.00057853
9.75861e-05
0.0519879
-0.000336397
0.000102934
0.0521326
-0.000459363
0.00011055
0.0527413
-0.000892943
0.000118384
0.052874
0.000114718
0.0453201
0.00119567
-0.000358426
0.0465225
9.07431e-05
-0.000415686
0.0541872
-0.000929494
-0.000376896
0.0538532
-0.000977538
-0.000329681
0.0527019
-0.000819503
-0.000320816
0.0522091
-0.000575128
-0.000322673
0.0520087
-0.000332277
-0.000335738
0.052155
-0.000456076
-0.000361259
0.052766
-0.000890379
-0.000370099
0.0529
-0.000342707
0.0453503
0.00120209
-0.000829112
0.0466119
0.000111591
-0.000957555
0.0542817
-0.000908249
-0.000854864
0.0539567
-0.000970966
-0.000742346
0.0528125
-0.000822266
-0.000732997
0.052325
-0.000587382
-0.000741887
0.0521278
-0.000354904
-0.000779891
0.0522751
-0.000479234
-0.00086071
0.0528836
-0.000896449
-0.000910146
0.0530081
-0.000818087
0.0454487
0.00120788
-0.00127157
0.0467762
0.000149792
-0.00146566
0.0544368
-0.000862538
-0.00129441
0.0541315
-0.000955613
-0.00111298
0.0530241
-0.000828219
-0.00111847
0.052547
-0.000613441
-0.00113629
0.0523526
-0.000398711
-0.00120137
0.052492
-0.000523257
-0.00135195
0.0530791
-0.00092154
-0.0014699
0.0531923
-0.00130278
0.0456259
0.00114963
-0.00144292
0.0466003
0.000145222
-0.00162484
0.0541887
-0.000799638
-0.00142562
0.0538769
-0.000926208
-0.00126508
0.0528897
-0.000838634
-0.00130294
0.0524281
-0.000660814
-0.00132415
0.0522288
-0.000473562
-0.00139173
0.0523359
-0.000598778
-0.00154817
0.0528445
-0.00098755
-0.00167618
0.0529239
-0.00148027
0.0453303
0.000807301
0.0394049
-0.000149336
0.0464928
-0.000798988
0.0460847
-0.000887343
0.0452723
-0.000868911
0.0447925
-0.000767181
0.0445684
-0.000663917
0.0446219
-0.000837841
0.0449937
-0.00117424
0.044984
0.0376591
-7.95151e-06
0.00112528
0.0381203
-0.000496241
0.00116834
0.0456526
-0.000965484
0.00127207
0.0451244
-0.00142388
0.001421
0.0441558
-0.00162739
0.0014018
0.0434357
-0.00174098
0.00140684
0.043109
-0.0019028
0.00139883
0.0432091
-0.0020375
0.0013131
0.0436284
-0.00177551
0.00125739
0.0432586
0.00122556
0.0344215
-2.88076e-05
0.00107845
0.0465405
-0.000488382
0.00109113
0.0545967
-0.000743662
0.00117458
0.0540954
-0.00124078
0.00131981
0.0533645
-0.00158246
0.00132004
0.0527252
-0.00185058
0.00132542
0.0524461
-0.0021593
0.00132059
0.0525805
-0.0024286
0.00125255
0.0530173
-0.00219485
0.00123478
0.0525472
0.00119854
0.0429718
-0.000187973
0.000848049
0.0470965
-0.000599715
0.000842087
0.055003
-0.000716501
0.000870977
0.0544531
-0.00121705
0.000949415
0.053806
-0.00156911
0.000954352
0.0531735
-0.00184883
0.000960654
0.0529016
-0.00215347
0.000964202
0.0530499
-0.00238548
0.000942647
0.0535052
-0.00215933
0.00098132
0.0530983
0.000976864
0.0435501
-0.000254109
0.000526286
0.0471262
-0.000628947
0.000515705
0.0549247
-0.000713417
0.000517131
0.0543342
-0.00122278
0.000543916
0.0536716
-0.00156751
0.000548628
0.0530183
-0.00183991
0.0005537
0.0527473
-0.00213384
0.000559117
0.0529095
-0.00234475
0.000560719
0.0534041
-0.00212715
0.000600966
0.053096
0.000599827
0.0436128
-0.000275498
0.000128173
0.0471745
-0.000640952
0.000124171
0.0549239
-0.000715971
0.00012719
0.0542973
-0.0012276
0.000127433
0.0536106
-0.00156458
0.000130064
0.0529448
-0.00183153
0.000132659
0.0526759
-0.00212177
0.000133759
0.0528482
-0.00232326
0.000133232
0.0533703
-0.00210982
0.000134203
0.0531273
0.000146045
0.043664
-0.000278591
-0.000281617
0.0472109
-0.000642832
-0.000279471
0.054955
-0.000713854
-0.000273981
0.0543254
-0.00122473
-0.000299266
0.0536395
-0.00156058
-0.000299113
0.0529741
-0.00182713
-0.000298997
0.0527069
-0.00211676
-0.000302031
0.0528804
-0.00231536
-0.000304973
0.0534028
-0.00210454
-0.000343644
0.053167
-0.000317318
0.0437091
-0.000264441
-0.000640726
0.0472355
-0.000633709
-0.000641512
0.055013
-0.000706264
-0.000659577
0.0544149
-0.00121396
-0.000735375
0.0537563
-0.00155584
-0.000736328
0.0531041
-0.00182724
-0.000737542
0.0528377
-0.00211912
-0.000738056
0.053003
-0.00232259
-0.00071607
0.0534981
-0.00211295
-0.000757326
0.0532121
-0.000732055
0.0437505
-0.000206854
-0.00092115
0.0472635
-0.00060903
-0.000942079
0.0551395
-0.000704424
-0.00101326
0.0545806
-0.00120223
-0.00115684
0.0539434
-0.00155045
-0.00115425
0.0533131
-0.00182881
-0.00115512
0.0530485
-0.00213094
-0.00114609
0.0532022
-0.00235293
-0.00107287
0.0536579
-0.00214064
-0.0010576
0.0532803
-0.00100941
0.0437627
-4.49902e-05
-0.00103703
0.0467612
-0.000500023
-0.00108454
0.0547862
-0.000727741
-0.00118272
0.0542741
-0.00122103
-0.00133196
0.0535581
-0.00156023
-0.00131115
0.0529242
-0.00182819
-0.0013138
0.0526554
-0.00213457
-0.00130359
0.0527998
-0.00239223
-0.00121239
0.0532416
-0.00217355
-0.00115138
0.052799
-0.00110955
0.0432569
-1.16203e-05
0.0383795
-0.00048813
0.0458848
-0.000944037
0.0453579
-0.00140128
0.0443976
-0.00160327
0.0436834
-0.00171749
0.0433688
-0.00188555
0.0434863
-0.00202694
0.0439227
-0.00177161
0.0435773
0.034778
-9.373e-05
0.00172818
0.0364859
-0.0017226
0.0019231
0.0453584
-0.00246145
0.00163889
0.0442244
-0.00229824
0.00139801
0.0425946
-0.00191741
0.00137642
0.0416785
-0.00143442
0.00140688
0.0412191
-0.000856287
0.00150254
0.0411285
-0.000611026
0.0017453
0.0416379
-0.00091204
0.00201407
0.0415455
0.00191251
0.0315969
0.000216532
0.00181814
0.0462341
-0.00122287
0.00194533
0.0560139
-0.00228038
0.00167374
0.0551181
-0.00222259
0.00140878
0.0532959
-0.00189494
0.00135901
0.052415
-0.00142553
0.00138988
0.0519937
-0.000839046
0.00149899
0.0519976
-0.000562082
0.00174584
0.0527398
-0.000744041
0.00199051
0.0527527
0.00192569
0.0422146
0.000340866
0.00130678
0.047267
-0.00116408
0.00139008
0.0570632
-0.00236039
0.00123474
0.0560884
-0.00224935
0.0010608
0.0540429
-0.00188158
0.00101839
0.0531464
-0.00136568
0.00103793
0.0527377
-0.000735494
0.00111443
0.0528043
-0.000466574
0.00127205
0.05371
-0.000658514
0.00140076
0.05388
0.00133241
0.0434849
0.000321574
0.000704103
0.0474073
-0.00127202
0.000758768
0.0571496
-0.00246929
0.000702932
0.0560632
-0.00228439
0.000631779
0.0539157
-0.00187168
0.000612078
0.0530119
-0.00131667
0.000624079
0.0526061
-0.000652906
0.000665832
0.0526943
-0.000370857
0.000734887
0.0536592
-0.000586039
0.000773895
0.053938
0.000733255
0.0436259
0.000288481
0.000162461
0.0474276
-0.00134123
0.000169118
0.0571433
-0.00252738
0.000164279
0.0560221
-0.00230313
0.000166924
0.0538512
-0.00186452
0.000171095
0.0529471
-0.00128696
0.000178001
0.0525444
-0.000603928
0.000189066
0.052642
-0.000314851
0.000200962
0.0536152
-0.000545034
0.000213339
0.053918
0.000206632
0.0436456
0.000290431
-0.00038472
0.0474677
-0.00134088
-0.000428182
0.0571836
-0.00252826
-0.000384956
0.056062
-0.00230053
-0.000311702
0.0538903
-0.00185958
-0.000284103
0.0529883
-0.00127965
-0.00028319
0.0525881
-0.000597083
-0.000304266
0.0526912
-0.000313732
-0.00034865
0.0536691
-0.000544341
-0.000359526
0.0539705
-0.000330724
0.0437022
0.000330227
-0.00101945
0.04754
-0.00127066
-0.00109787
0.0572836
-0.00247167
-0.000956874
0.0561878
-0.00227698
-0.000780363
0.0540302
-0.00185717
-0.000730952
0.0531312
-0.00129506
-0.000740189
0.0527326
-0.000633296
-0.000801197
0.0528382
-0.000365901
-0.000940943
0.053823
-0.000582066
-0.00104007
0.0541088
-0.000972634
0.0438103
0.000361473
-0.00159831
0.0474808
-0.00115509
-0.00171928
0.0572775
-0.00236378
-0.00146296
0.0562954
-0.00223723
-0.00119357
0.0542301
-0.00185841
-0.00113795
0.0533413
-0.00133157
-0.00116227
0.0529438
-0.00070223
-0.00126415
0.0530358
-0.000454835
-0.00150566
0.0539752
-0.000647805
-0.00172677
0.05416
-0.00164695
0.0437892
0.000237296
-0.00161168
0.0465373
-0.00120054
-0.00180166
0.0563064
-0.0022763
-0.00152356
0.0554104
-0.00220394
-0.00127691
0.0535691
-0.00186364
-0.00125137
0.0526973
-0.00138027
-0.00127897
0.0522888
-0.000794401
-0.00137146
0.0523212
-0.000546004
-0.00161325
0.0531008
-0.00072953
-0.00187613
0.0531319
-0.00176796
0.0426484
-0.000106094
0.0368739
-0.00172956
0.0457066
-0.00246045
0.0445653
-0.00227757
0.0429378
-0.00188187
0.0420363
-0.00138153
0.0415895
-0.000791549
0.0415249
-0.00054971
0.0420676
-0.000852464
0.042004
0.0321575
-0.00165742
0.00153396
0.0366093
-0.00292985
0.00145566
0.0451752
-0.00311317
0.00146895
0.0429387
-0.00306197
0.00155292
0.0409905
-0.00279194
0.00155353
0.0398549
-0.00247892
0.00156056
0.0393455
-0.00224946
0.00158122
0.0393178
-0.00179976
0.00158934
0.0395988
-0.00174972
0.00178293
0.0397126
0.00193987
0.0279073
-0.00160501
0.00157493
0.0477981
-0.00302025
0.00152507
0.0573597
-0.00280436
0.00147813
0.054893
-0.00273807
0.00153722
0.0532453
-0.00265202
0.00154143
0.052341
-0.00252475
0.00155887
0.0518681
-0.00235469
0.00157893
0.0518298
-0.00181986
0.00158878
0.0522055
-0.00200913
0.00184603
0.0528789
0.00210284
0.0400425
-0.00204097
0.00121959
0.0496633
-0.00332684
0.00116767
0.0587065
-0.00279842
0.00111785
0.0559203
-0.00268073
0.00115081
0.0543116
-0.00260345
0.00114666
0.0534638
-0.00246861
0.00116493
0.0529968
-0.00221514
0.00119286
0.0529369
-0.00151802
0.00120204
0.0533996
-0.00169074
0.00138097
0.0545177
0.00157681
0.0423202
-0.00224425
0.000741458
0.0501297
-0.00347954
0.00070363
0.0588489
-0.00284822
0.000687881
0.0558619
-0.00269972
0.000703873
0.0542141
-0.00259634
0.000698286
0.0533569
-0.00242658
0.000709777
0.0528915
-0.00212195
0.000729329
0.0528532
-0.00134931
0.000739597
0.053349
-0.00151524
0.000830085
0.0546548
0.000924752
0.0427627
-0.00230572
0.000214066
0.0502607
-0.00354558
0.00020272
0.058884
-0.00288705
0.000215796
0.0558356
-0.00271625
0.000219815
0.0541645
-0.00259036
0.000223132
0.0532964
-0.00239562
0.000228484
0.0528309
-0.0020684
0.000231906
0.0528122
-0.00127499
0.00023425
0.0533271
-0.00144525
0.000229387
0.054689
0.000261741
0.0428634
-0.00230889
-0.000329272
0.0503199
-0.00354497
-0.000312398
0.0589348
-0.00288177
-0.000273073
0.0558877
-0.00271054
-0.000281101
0.05422
-0.00258452
-0.000268501
0.0533539
-0.00238635
-0.000269006
0.0528875
-0.00205429
-0.000280914
0.0528719
-0.00126105
-0.000285162
0.0533953
-0.00142739
-0.000383224
0.0547495
-0.000414407
0.0429509
-0.00226298
-0.000847931
0.0503216
-0.00348372
-0.000812671
0.0590046
-0.00283119
-0.000749061
0.0560113
-0.00268156
-0.000776737
0.0543762
-0.00257951
-0.000765747
0.0535263
-0.00240155
-0.000773195
0.0530589
-0.00208244
-0.000790438
0.0530286
-0.00130551
-0.00078579
0.0535467
-0.00146074
-0.000961121
0.0548419
-0.00111046
0.0430456
-0.00208055
-0.00129036
0.0500038
-0.00333361
-0.00125668
0.0589746
-0.00276926
-0.00118517
0.0561671
-0.00265002
-0.00124474
0.0545788
-0.00257677
-0.00124288
0.0537452
-0.0024326
-0.00125072
0.0532771
-0.00216006
-0.00125577
0.0532286
-0.00145614
-0.00124199
0.0537274
-0.00160944
-0.00148655
0.0548387
-0.00174055
0.0428098
-0.00165015
-0.00137292
0.04827
-0.00304111
-0.00130887
0.0577495
-0.00276862
-0.00130245
0.0552552
-0.00269594
-0.00138629
0.053638
-0.00261458
-0.00138322
0.0527563
-0.0024792
-0.00138434
0.052287
-0.00228261
-0.00139672
0.0522656
-0.00173184
-0.00139225
0.0527003
-0.00190858
-0.00157611
0.0533982
-0.0017486
0.0407479
-0.00164669
0.0371477
-0.00291845
0.0456695
-0.00306983
0.0434142
-0.00300984
0.0414915
-0.0027404
0.0403836
-0.00242017
0.0398849
-0.00216828
0.0398763
-0.00174196
0.040249
-0.00172297
0.0404089
0.028686
-0.00305439
0.00344757
0.0362161
-0.00534221
0.00292297
0.04454
-0.00550089
0.00212027
0.0409772
-0.00463713
0.00167515
0.0384516
-0.00347193
0.00163913
0.0370506
-0.00217065
0.00164781
0.0363965
-0.000862377
0.00173287
0.0362766
0.000416406
0.00222577
0.0360943
0.000210816
0.00306591
0.0368523
0.00312228
0.0249959
-0.00265567
0.00336258
0.0505388
-0.00462021
0.0028412
0.059406
-0.0049221
0.0022375
0.0550777
-0.00427174
0.00179475
0.0524753
-0.00329891
0.00172108
0.0512862
-0.00220647
0.00175814
0.0506653
-0.000958805
0.00196279
0.0503523
0.000140797
0.00247582
0.0508559
6.49168e-05
0.0030293
0.0529914
0.00319902
0.0400307
-0.00279155
0.0020805
0.0537369
-0.00487899
0.00188786
0.0617473
-0.00510135
0.00163842
0.0567417
-0.0043005
0.00137529
0.0539302
-0.003243
0.00130847
0.0528189
-0.00209704
0.0013428
0.0522661
-0.000668628
0.00150724
0.051964
0.000497888
0.00180717
0.0529018
0.00018679
0.00205322
0.0558049
0.00200415
0.0437018
-0.00301597
0.00106982
0.0541563
-0.00520343
0.0010354
0.0618889
-0.00531419
0.000954216
0.0566568
-0.00438317
0.000847791
0.0538106
-0.00323042
0.000813479
0.0526991
-0.00198949
0.000834723
0.0521586
-0.000413386
0.000923825
0.0518605
0.0008319
0.00105277
0.0528581
0.000376274
0.00113707
0.0560266
0.00108153
0.0440616
-0.00313731
0.000269831
0.054198
-0.00534723
0.000276923
0.0618524
-0.00541107
0.000276586
0.0565771
-0.00442164
0.000281925
0.0537409
-0.00322091
0.000290461
0.0526187
-0.0019258
0.000301324
0.0520692
-0.000287091
0.00032485
0.0517724
0.000971081
0.000350186
0.0527715
0.000452467
0.000364069
0.0559806
0.000368469
0.0440289
-0.00314516
-0.000537432
0.0542723
-0.00535229
-0.00049417
0.0619131
-0.00541089
-0.000416982
0.0566398
-0.00441494
-0.000302709
0.0538087
-0.00321287
-0.000249756
0.0526921
-0.00191012
-0.000249791
0.0521358
-0.00026314
-0.000296057
0.0518459
0.000970856
-0.000375553
0.052887
0.000450232
-0.000434003
0.0560682
-0.000365545
0.0441352
-0.00303685
-0.0015812
0.0544022
-0.00522716
-0.00139224
0.062093
-0.00531697
-0.00115853
0.0568426
-0.004365
-0.000890793
0.0540124
-0.00320562
-0.000809212
0.0529264
-0.00194008
-0.000827019
0.0523705
-0.000330536
-0.000961564
0.0520846
0.000855887
-0.0012269
0.0532117
0.000384647
-0.0014479
0.0563271
-0.00135439
0.0444191
-0.00281584
-0.00296661
0.0542051
-0.00491489
-0.00244134
0.0621227
-0.00510698
-0.00186104
0.0570617
-0.0042714
-0.00141434
0.0542668
-0.00320082
-0.00132909
0.0531945
-0.00201559
-0.00135741
0.0526223
-0.000531346
-0.00156167
0.0523445
0.000563674
-0.00207761
0.0534831
0.000212109
-0.00260172
0.0563441
-0.00267784
0.0443454
-0.00267491
-0.00324299
0.0512213
-0.00463808
-0.00270859
0.0599799
-0.00491516
-0.00191767
0.0555889
-0.00422706
-0.00145624
0.0529917
-0.00324274
-0.00141807
0.0518609
-0.00211811
-0.00142229
0.0512272
-0.000820825
-0.00151212
0.0509188
0.000195775
-0.002024
0.0516301
5.52587e-05
-0.00282976
0.0537668
-0.00286824
0.0409936
-0.00308408
0.0369887
-0.0053285
0.0452053
-0.00546065
0.0416287
-0.00457098
0.0391456
-0.0033993
0.0377939
-0.00209496
0.0371583
-0.000735004
0.0370042
0.00052518
0.0369649
0.000247379
0.0378569
0.0260651
-0.00665204
0.00328403
0.0395842
-0.00855632
0.00226221
0.0441821
-0.00722165
0.00162823
0.0380143
-0.00585316
0.00162009
0.035463
-0.00452481
0.00163686
0.0340854
-0.00310028
0.00168264
0.0332893
-0.00209547
0.00157741
0.0336944
-0.000357049
0.0016049
0.0327509
-0.000399383
0.00269084
0.0342037
0.00454837
0.0200481
-0.00636744
0.0026788
0.0575114
-0.00799819
0.00214743
0.0611515
-0.00622963
0.00172127
0.0532161
-0.00509637
0.00173172
0.0512305
-0.00410486
0.00173608
0.0501955
-0.00321536
0.00174843
0.04971
-0.00189645
0.00172146
0.0488893
0.00024384
0.00168856
0.0486319
0.000322987
0.00233046
0.0532726
0.00353067
0.0413714
-0.00701791
0.00181178
0.0616218
-0.008374
0.00159553