/*--------------------------------*- C++ -*----------------------------------*\
| =========                 |                                                 |
| \\      /  F ield         | OpenFOAM: The Open Source CFD Toolbox           |
|  \\    /   O peration     | Version:  1.7.x                                 |
|   \\  /    A nd           | Web:      www.OpenFOAM.com                      |
|    \\/     M anipulation  |                                                 |
\*---------------------------------------------------------------------------*/
FoamFile
{
    version     2.0;
    format      ascii;
    class       volVectorField;
    location    "0.3";
    object      U;
}
// * * * * * * * * * * * * * * * * * * * * * * * * * * * * * * * * * * * * * //

dimensions      [0 1 -1 0 0 0 0];

internalField   nonuniform List<vector> 
8000
(
(4.70359 0.0441023 0.044449)
(4.82671 0.0463631 0.0381505)
(4.88967 0.00101519 0.0377622)
(4.89957 0.00728779 0.0420501)
(4.90498 0.0013689 0.0430471)
(4.9083 0.00221627 0.0435245)
(4.90517 0.00156406 0.0436218)
(4.88772 -0.00247437 0.0416097)
(4.84972 -0.0418427 0.0411573)
(4.75055 -0.0383835 0.0407173)
(4.70849 0.0563163 0.0659099)
(4.86749 0.0527068 0.0614871)
(4.9963 -0.0166788 0.0570076)
(4.99843 0.00349761 0.0595742)
(5.00317 0.0063483 0.0611281)
(5.0079 0.0149395 0.0619876)
(5.00587 0.0254596 0.0632865)
(4.97432 0.0315883 0.0631982)
(4.88656 -0.0176687 0.0641905)
(4.76443 -0.0333552 0.0597514)
(4.69236 0.0585903 0.0302026)
(4.86216 0.0542909 0.0310712)
(5.00305 -0.0189188 0.0273268)
(4.99874 0.00421645 0.0270115)
(5.00357 0.00763553 0.0273374)
(5.00858 0.01751 0.0277505)
(5.00799 0.029828 0.0286745)
(4.97601 0.0378522 0.0294773)
(4.87764 -0.0120607 0.0298575)
(4.74529 -0.0313869 0.0270813)
(4.69105 0.0586874 0.014846)
(4.86282 0.0534361 0.0166525)
(5.00379 -0.0198696 0.014939)
(4.99826 0.00476161 0.0138494)
(5.00354 0.00796383 0.013656)
(5.00861 0.018079 0.0138674)
(5.00811 0.0305399 0.0145404)
(4.97631 0.0389205 0.0153599)
(4.87687 -0.010981 0.0156201)
(4.74234 -0.0310794 0.013949)
(4.69116 0.0588092 0.00504405)
(4.86299 0.052888 0.00589093)
(5.00353 -0.0205933 0.0054111)
(4.99798 0.00488428 0.00499813)
(5.00349 0.00805673 0.00487874)
(5.00856 0.0182944 0.0049866)
(5.00797 0.030807 0.00529332)
(4.97613 0.0393044 0.00561715)
(4.87655 -0.0107542 0.00559567)
(4.74175 -0.0311357 0.00486649)
(4.69099 0.0589016 -0.00356058)
(4.86282 0.0528965 -0.0040941)
(5.00369 -0.0208026 -0.00351667)
(4.99808 0.0048013 -0.00305914)
(5.00351 0.00807155 -0.00295636)
(5.00855 0.0183613 -0.00291697)
(5.00801 0.0309539 -0.00296489)
(4.97621 0.0395128 -0.00313597)
(4.87641 -0.0106598 -0.00337568)
(4.74143 -0.0311746 -0.00321295)
(4.69046 0.0589533 -0.013414)
(4.86226 0.0534563 -0.0149607)
(5.00421 -0.0204759 -0.0132195)
(4.99854 0.00452813 -0.0120722)
(5.00358 0.00800857 -0.0118855)
(5.00855 0.0182757 -0.0119653)
(5.00822 0.0309618 -0.0124076)
(4.97657 0.0395173 -0.013078)
(4.87655 -0.0106889 -0.0135582)
(4.74143 -0.0311786 -0.0124399)
(4.6912 0.0590048 -0.0289737)
(4.8612 0.054351 -0.0297236)
(5.00371 -0.0198263 -0.0259276)
(4.99918 0.00387986 -0.0255635)
(5.00364 0.00771002 -0.0258638)
(5.00849 0.0178136 -0.0261639)
(5.00816 0.0304814 -0.026889)
(4.97637 0.0388008 -0.0275121)
(4.87697 -0.0115757 -0.0280589)
(4.74373 -0.0315237 -0.0257728)
(4.70663 0.0568634 -0.0652033)
(4.86597 0.0529035 -0.060832)
(4.997 -0.0177191 -0.056173)
(4.99894 0.00310081 -0.0586909)
(5.00326 0.00647279 -0.0602338)
(5.00783 0.0153446 -0.0610301)
(5.00603 0.026325 -0.0622408)
(4.97446 0.0328109 -0.0620603)
(4.88511 -0.016994 -0.0630921)
(4.7618 -0.0333986 -0.0589616)
(4.70207 0.0443154 -0.0442837)
(4.82572 0.0462483 -0.0379856)
(4.8899 0.000403677 -0.0374789)
(4.89972 0.00719545 -0.0417983)
(4.905 0.00150306 -0.0428123)
(4.90832 0.00252588 -0.0432829)
(4.90527 0.00213239 -0.0433777)
(4.8876 -0.0015509 -0.0413379)
(4.8485 -0.0411785 -0.0408346)
(4.74851 -0.0382238 -0.0404434)
(4.78587 0.0617828 0.0785106)
(4.95815 0.110015 0.0803891)
(4.85574 0.0746516 0.0858702)
(4.82977 0.0129754 0.0850004)
(4.82027 -0.0176217 0.0828482)
(4.81393 -0.0437861 0.0829334)
(4.82024 -0.0760282 0.082437)
(4.85722 -0.113229 0.0826954)
(4.93201 -0.154805 0.0836992)
(4.73344 -0.09043 0.0842107)
(5.0953 0.0429596 0.110027)
(5.23556 0.0963064 0.103559)
(5.05565 0.100496 0.118083)
(5.04468 0.0268601 0.124388)
(5.03867 -0.0228879 0.121642)
(5.03295 -0.0582343 0.121808)
(5.03797 -0.109583 0.119192)
(5.09567 -0.158638 0.114472)
(5.23635 -0.187462 0.111615)
(5.0559 -0.0966206 0.119997)
(5.09413 0.036756 0.0555363)
(5.22377 0.090928 0.0473913)
(5.02799 0.106263 0.0571964)
(5.02648 0.029039 0.0628654)
(5.02006 -0.0237937 0.0626536)
(5.01438 -0.0606319 0.0629771)
(5.01741 -0.115363 0.0615023)
(5.07565 -0.167093 0.0586805)
(5.23271 -0.194072 0.0570009)
(5.06508 -0.0978303 0.0632465)
(5.08736 0.034992 0.0306417)
(5.21588 0.0913326 0.0255616)
(5.01976 0.109828 0.0298697)
(5.01927 0.0295223 0.03369)
(5.01182 -0.0238524 0.0342471)
(5.00598 -0.0610889 0.0344662)
(5.00893 -0.116571 0.0335772)
(5.06701 -0.169033 0.0317754)
(5.22622 -0.19546 0.031161)
(5.06195 -0.0978689 0.0340593)
(5.08466 0.0340824 0.0115651)
(5.21371 0.0918718 0.00961043)
(5.01828 0.112018 0.0109966)
(5.01729 0.0299206 0.0123627)
(5.0093 -0.0238153 0.0126395)
(5.00343 -0.0612375 0.0127171)
(5.0066 -0.117104 0.01233)
(5.06493 -0.169902 0.0116027)
(5.22466 -0.195751 0.0114672)
(5.06096 -0.0975632 0.0127443)
(5.08495 0.0339154 -0.00654178)
(5.21417 0.0918064 -0.00531687)
(5.01833 0.112401 -0.00624973)
(5.01733 0.0301444 -0.00737766)
(5.00944 -0.0237752 -0.00756087)
(5.00364 -0.0612399 -0.00764841)
(5.00676 -0.117274 -0.00757147)
(5.06504 -0.170176 -0.00731011)
(5.22508 -0.195841 -0.00709483)
(5.06161 -0.0974282 -0.00718267)
(5.08839 0.0344903 -0.0261472)
(5.21731 0.0911526 -0.0217159)
(5.01991 0.110968 -0.025486)
(5.01934 0.0301616 -0.029119)
(5.01216 -0.0237295 -0.0295891)
(5.00653 -0.0610941 -0.0298158)
(5.00932 -0.117047 -0.0291981)
(5.0672 -0.16981 -0.0278274)
(5.2273 -0.19576 -0.0271631)
(5.06372 -0.0975059 -0.0288855)
(5.09606 0.0359546 -0.0516928)
(5.22611 0.09056 -0.04393)
(5.02817 0.107942 -0.0534097)
(5.02656 0.0300011 -0.0589722)
(5.02058 -0.023595 -0.0587109)
(5.01522 -0.0606329 -0.0590622)
(5.01799 -0.116072 -0.0578092)
(5.07601 -0.168293 -0.0553432)
(5.23467 -0.194569 -0.0535944)
(5.06804 -0.0972935 -0.0588278)
(5.09825 0.0419094 -0.107316)
(5.23877 0.0956404 -0.100675)
(5.05596 0.102375 -0.115375)
(5.04484 0.0280615 -0.121853)
(5.03939 -0.0226693 -0.119048)
(5.03404 -0.0582835 -0.119261)
(5.03884 -0.110493 -0.116721)
(5.09665 -0.160132 -0.112008)
(5.23988 -0.188138 -0.108876)
(5.0608 -0.0961289 -0.116837)
(4.78892 0.0612078 -0.0775116)
(4.96046 0.109922 -0.0791971)
(4.85664 0.0759237 -0.0849727)
(4.83067 0.0136412 -0.0842057)
(4.82139 -0.0174439 -0.0819877)
(4.81516 -0.0438077 -0.0820928)
(4.82146 -0.0765588 -0.0815882)
(4.85891 -0.114254 -0.081762)
(4.93535 -0.155351 -0.0825535)
(4.73813 -0.0903115 -0.0831956)
(4.33477 0.102078 0.101635)
(4.74649 0.104952 0.11278)
(4.78493 -0.00470474 0.102305)
(4.75837 -0.0105068 0.0984229)
(4.75163 -0.023268 0.100677)
(4.74949 -0.0344673 0.101138)
(4.75149 -0.0405502 0.103452)
(4.74572 -0.0554093 0.106356)
(4.71293 -0.126154 0.107615)
(4.35481 -0.0947233 0.0954959)
(4.57826 0.125593 0.161588)
(5.04948 0.130504 0.183619)
(5.16932 -0.0238816 0.163771)
(5.12283 -0.0273936 0.150276)
(5.11631 -0.0202132 0.152713)
(5.11078 -0.0242275 0.153569)
(5.11284 -0.0132171 0.159125)
(5.08692 -0.0164722 0.169606)
(4.97801 -0.0986851 0.176958)
(4.58649 -0.0956538 0.154708)
(4.53506 0.132808 0.0950269)
(5.02293 0.136776 0.109489)
(5.15799 -0.0328318 0.0967648)
(5.09723 -0.0320352 0.0874416)
(5.09176 -0.0196279 0.0876542)
(5.08521 -0.0217251 0.0882926)
(5.08969 -0.00650883 0.09197)
(5.06539 -0.00728744 0.0985298)
(4.9405 -0.0918199 0.102385)
(4.53212 -0.0951503 0.0899066)
(4.51742 0.135169 0.0543854)
(5.01081 0.136382 0.061565)
(5.14481 -0.0382465 0.0566303)
(5.07992 -0.0334798 0.0517694)
(5.07524 -0.0193282 0.0511681)
(5.06848 -0.0203333 0.0516244)
(5.0736 -0.00375169 0.0536621)
(5.05088 -0.00367701 0.0569358)
(4.92469 -0.0897749 0.0584295)
(4.50943 -0.0954266 0.0533257)
(4.5132 0.136295 0.0207937)
(5.00798 0.135671 0.0232569)
(5.14013 -0.0412795 0.0217594)
(5.07417 -0.0342686 0.0201981)
(5.06986 -0.0191394 0.0199173)
(5.063 -0.0194899 0.0201685)
(5.06827 -0.00219435 0.0210631)
(5.04609 -0.00173327 0.0224006)
(4.91986 -0.0890348 0.0229596)
(4.50222 -0.0958973 0.0210813)
(4.51369 0.136428 -0.011917)
(5.00825 0.135771 -0.0137384)
(5.14084 -0.041602 -0.0127117)
(5.07481 -0.034414 -0.0111577)
(5.07045 -0.0190737 -0.0108649)
(5.06354 -0.0193358 -0.0108431)
(5.0689 -0.00186599 -0.0110616)
(5.04691 -0.00132237 -0.0114197)
(4.92044 -0.0887595 -0.0114707)
(4.50241 -0.0959264 -0.0107422)
(4.51842 0.135589 -0.046164)
(5.01133 0.136675 -0.0527337)
(5.14677 -0.0392069 -0.0483927)
(5.08171 -0.0338724 -0.0435503)
(5.07689 -0.0191376 -0.0428955)
(5.06999 -0.0198932 -0.0431195)
(5.07542 -0.0028245 -0.0445657)
(5.05329 -0.00250619 -0.0469048)
(4.92639 -0.0889432 -0.0478937)
(4.50995 -0.0954763 -0.0439972)
(4.53611 0.133505 -0.0882412)
(5.02349 0.137377 -0.102196)
(5.16101 -0.0342153 -0.0899136)
(5.09999 -0.0326075 -0.0805919)
(5.09427 -0.0193165 -0.0806905)
(5.08752 -0.0210715 -0.0811198)
(5.09252 -0.00509881 -0.0843088)
(5.069 -0.0054779 -0.0900968)
(4.94262 -0.0904756 -0.0935552)
(4.53256 -0.0951793 -0.0822072)
(4.57932 0.126553 -0.157379)
(5.05012 0.131449 -0.179438)
(5.17316 -0.0254099 -0.159601)
(5.12645 -0.0281395 -0.145771)
(5.1196 -0.0197414 -0.148121)
(5.11383 -0.0232972 -0.148804)
(5.11634 -0.0113235 -0.154143)
(5.09084 -0.0141245 -0.164479)
(4.97934 -0.0969297 -0.171855)
(4.58585 -0.0955798 -0.150161)
(4.33665 0.102713 -0.100482)
(4.74954 0.105217 -0.111851)
(4.78921 -0.00577871 -0.101061)
(4.7623 -0.0107773 -0.0969054)
(4.75548 -0.0226171 -0.0991738)
(4.75333 -0.0333399 -0.0995628)
(4.75561 -0.038701 -0.101857)
(4.74979 -0.0530168 -0.104898)
(4.71536 -0.124344 -0.106376)
(4.35592 -0.0944841 -0.0940829)
(4.47354 0.0591597 0.0825445)
(4.85042 0.10048 0.0839575)
(4.71805 0.0596906 0.0966165)
(4.67904 -0.013588 0.103352)
(4.64949 -0.0624569 0.100336)
(4.63818 -0.095932 0.100442)
(4.64976 -0.137197 0.0983571)
(4.71134 -0.176905 0.0930391)
(4.81626 -0.20622 0.0917918)
(4.3344 -0.108258 0.0970151)
(5.09313 0.0420931 0.123373)
(5.43091 0.0763298 0.121311)
(5.20623 0.0790239 0.141173)
(5.19106 0.00750003 0.158763)
(5.16537 -0.0645649 0.155851)
(5.1588 -0.106601 0.156227)
(5.17249 -0.170425 0.152052)
(5.26301 -0.224966 0.139111)
(5.46115 -0.252758 0.131451)
(4.99418 -0.120464 0.139448)
(5.09141 0.0336187 0.0756632)
(5.41235 0.0659213 0.0718479)
(5.1694 0.0866833 0.0846794)
(5.16988 0.0116334 0.0957041)
(5.14308 -0.0653725 0.0952795)
(5.13768 -0.108057 0.0958959)
(5.14958 -0.176651 0.0939936)
(5.23926 -0.232836 0.0875292)
(5.45828 -0.25772 0.0846836)
(5.01369 -0.120736 0.0902304)
(5.07041 0.0316689 0.0517973)
(5.38725 0.065649 0.0501859)
(5.14431 0.0911966 0.0546856)
(5.14854 0.0123057 0.0596405)
(5.12027 -0.0656705 0.0602756)
(5.11505 -0.108353 0.0607118)
(5.12687 -0.178115 0.0601017)
(5.2156 -0.234961 0.0579104)
(5.43724 -0.259142 0.0579073)
(5.00113 -0.120677 0.0585664)
(5.06083 0.0309009 0.0225888)
(5.37718 0.0662106 0.0220016)
(5.13587 0.0936813 0.023232)
(5.14099 0.0126996 0.0247357)
(5.112 -0.0657586 0.0251541)
(5.10686 -0.108442 0.0253645)
(5.11884 -0.178736 0.0251651)
(5.20745 -0.235957 0.0244218)
(5.42994 -0.259575 0.0245077)
(4.99714 -0.120277 0.0249444)
(5.06195 0.0307918 -0.00982628)
(5.37848 0.0660324 -0.00937444)
(5.13667 0.0939999 -0.010109)
(5.14184 0.0129577 -0.0115233)
(5.11296 -0.065602 -0.0115707)
(5.1079 -0.108277 -0.0115443)
(5.11983 -0.178746 -0.0114458)
(5.20827 -0.23602 -0.0112691)
(5.43117 -0.259534 -0.011613)
(4.99927 -0.120214 -0.0109276)
(5.07413 0.0312838 -0.0404999)
(5.39124 0.0651244 -0.0390726)
(5.14665 0.0921886 -0.042844)
(5.15098 0.0130391 -0.0476151)
(5.12302 -0.0652143 -0.0479537)
(5.11798 -0.107864 -0.048139)
(5.12961 -0.178114 -0.0475962)
(5.2178 -0.23513 -0.0459839)
(5.44066 -0.259066 -0.0463241)
(5.00724 -0.120535 -0.045699)
(5.09776 0.0329176 -0.0662304)
(5.41875 0.0648827 -0.0627347)
(5.17299 0.0881748 -0.0748364)
(5.17368 0.0127992 -0.085639)
(5.14734 -0.0646556 -0.0850211)
(5.14222 -0.107252 -0.0854458)
(5.15376 -0.176607 -0.0836387)
(5.24271 -0.233084 -0.077624)
(5.46421 -0.257677 -0.0750636)
(5.02377 -0.120561 -0.0792498)
(5.10187 0.0410902 -0.11697)
(5.43963 0.0748489 -0.115017)
(5.21127 0.0807872 -0.134457)
(5.19626 0.00909871 -0.152226)
(5.17121 -0.0637208 -0.149205)
(5.16513 -0.105765 -0.14948)
(5.1787 -0.170564 -0.14527)
(5.26918 -0.225405 -0.132114)
(5.47149 -0.252876 -0.124179)
(5.00936 -0.120241 -0.131236)
(4.48357 0.0581647 -0.0799686)
(4.85835 0.0999275 -0.0813112)
(4.7246 0.0612872 -0.0941898)
(4.68595 -0.0122804 -0.101218)
(4.65684 -0.0616795 -0.0981116)
(4.64604 -0.0952292 -0.0982116)
(4.65789 -0.137269 -0.0961018)
(4.72032 -0.177675 -0.0904667)
(4.82842 -0.206867 -0.0886758)
(4.35006 -0.107836 -0.0938136)
(3.82033 0.0866024 0.107417)
(4.59495 0.0610322 0.121963)
(4.63884 -0.0759694 0.107673)
(4.56104 -0.0835507 0.0981974)
(4.53148 -0.0855124 0.102049)
(4.51647 -0.0883593 0.103584)
(4.52211 -0.0750725 0.108002)
(4.51949 -0.0693994 0.117739)
(4.42582 -0.123819 0.124283)
(3.73027 -0.0959346 0.103949)
(4.36558 0.112817 0.173597)
(5.20048 0.108796 0.198435)
(5.34394 -0.0721941 0.177462)
(5.24618 -0.0942204 0.155585)
(5.21814 -0.0821054 0.158073)
(5.20054 -0.0833353 0.160662)
(5.20364 -0.0586317 0.16882)
(5.17523 -0.043978 0.188247)
(4.97297 -0.0946767 0.20501)
(4.22102 -0.0904797 0.182995)
(4.35719 0.119367 0.115299)
(5.19905 0.120282 0.132076)
(5.36001 -0.0826259 0.116721)
(5.24219 -0.0998228 0.102033)
(5.21512 -0.0813768 0.102015)
(5.19697 -0.0807779 0.103813)
(5.20379 -0.050999 0.109775)
(5.18313 -0.0342703 0.122254)
(4.96084 -0.0868879 0.131218)
(4.18324 -0.0873122 0.117033)
(4.33999 0.12152 0.0724777)
(5.18396 0.120054 0.0813065)
(5.34241 -0.0907034 0.0751049)
(5.2177 -0.102297 0.0686036)
(5.19137 -0.0812647 0.0676684)
(5.17297 -0.0789457 0.0686071)
(5.18109 -0.0467139 0.0717564)
(5.16511 -0.0285285 0.0772192)
(4.94399 -0.0827068 0.080104)
(4.156 -0.0863021 0.0751031)
(4.33771 0.122134 0.0306538)
(5.18093 0.118835 0.033563)
(5.33532 -0.0947608 0.0318739)
(5.20803 -0.103409 0.0301143)
(5.18212 -0.0811053 0.0297385)
(5.16369 -0.0777278 0.0302309)
(5.17243 -0.044187 0.0315937)
(5.15861 -0.0250892 0.0336924)
(4.9391 -0.0804922 0.0349617)
(4.14658 -0.0862795 0.0333837)
(4.33965 0.122121 -0.0126707)
(5.18235 0.119091 -0.0151071)
(5.33712 -0.0949508 -0.0138508)
(5.20971 -0.103432 -0.0117903)
(5.18377 -0.0809561 -0.0112813)
(5.16541 -0.0774795 -0.0112243)
(5.17434 -0.0437623 -0.0115381)
(5.16103 -0.0246591 -0.0121539)
(4.94145 -0.080268 -0.0119264)
(4.14787 -0.0860727 -0.0110648)
(4.34481 0.121623 -0.0558286)
(5.1877 0.12087 -0.0641471)
(5.34762 -0.0913215 -0.0586428)
(5.2226 -0.102342 -0.052002)
(5.19622 -0.080814 -0.0508687)
(5.17806 -0.0782323 -0.0513376)
(5.18681 -0.0454988 -0.0535691)
(5.1724 -0.0273047 -0.0575843)
(4.95097 -0.0820247 -0.0589289)
(4.15972 -0.0856539 -0.0548649)
(4.36403 0.119674 -0.101352)
(5.20463 0.121951 -0.117519)
(5.36826 -0.083503 -0.102946)
(5.24995 -0.0999082 -0.0881683)
(5.22283 -0.0806393 -0.08788)
(5.20516 -0.0796926 -0.0892573)
(5.21316 -0.0491186 -0.0944392)
(5.19489 -0.0323561 -0.105805)
(4.97112 -0.0856276 -0.113364)
(4.18825 -0.0861711 -0.100199)
(4.37482 0.113082 -0.16432)
(5.2078 0.110962 -0.188918)
(5.35497 -0.0730424 -0.168535)
(5.2569 -0.0943708 -0.146272)
(5.22875 -0.0810069 -0.148467)
(5.21153 -0.0816582 -0.15078)
(5.21567 -0.0559158 -0.158619)
(5.18893 -0.0412814 -0.177923)
(4.98309 -0.0926525 -0.194243)
(4.22562 -0.0890842 -0.172745)
(3.8319 0.0874696 -0.104649)
(4.60656 0.0616857 -0.119163)
(4.65181 -0.0767772 -0.10469)
(4.57377 -0.083477 -0.0948006)
(4.54438 -0.0839978 -0.0985327)
(4.52962 -0.0860607 -0.0998963)
(4.53598 -0.0716275 -0.104133)
(4.53379 -0.0650956 -0.113935)
(4.43774 -0.119574 -0.12098)
(3.74075 -0.0947338 -0.100846)
(4.15983 0.00512227 0.0766423)
(4.69773 -0.0106304 0.0819108)
(4.53431 -0.0640313 0.0925346)
(4.46747 -0.117555 0.103001)
(4.39503 -0.156512 0.100932)
(4.36746 -0.165207 0.101126)
(4.37839 -0.184513 0.0999347)
(4.45843 -0.207994 0.0928132)
(4.5768 -0.226564 0.0872388)
(3.80901 -0.106437 0.0881838)
(5.07477 0.01356 0.127055)
(5.60852 -0.0250816 0.132014)
(5.34576 -0.0482012 0.143358)
(5.30255 -0.0896744 0.163308)
(5.24353 -0.147008 0.16345)
(5.22277 -0.166656 0.163785)
(5.24377 -0.204898 0.161839)
(5.36404 -0.241379 0.150436)
(5.61435 -0.27629 0.142955)
(4.87404 -0.1396 0.13432)
(5.12339 0.00436024 0.0904493)
(5.63825 -0.0495888 0.0903568)
(5.35473 -0.0451367 0.0968564)
(5.32752 -0.0860159 0.108582)
(5.26859 -0.146559 0.109006)
(5.24849 -0.165059 0.109778)
(5.26914 -0.205903 0.109866)
(5.38695 -0.240357 0.10532)
(5.66377 -0.270997 0.106737)
(4.97381 -0.139388 0.106622)
(5.11292 -0.00083596 0.0696045)
(5.61935 -0.0567072 0.0687115)
(5.33396 -0.0431818 0.0697125)
(5.30937 -0.0868311 0.0738137)
(5.248 -0.147372 0.074397)
(5.22799 -0.164213 0.0751198)
(5.24967 -0.204616 0.0760126)
(5.36722 -0.237789 0.076326)
(5.64818 -0.267472 0.0816712)
(4.97523 -0.137705 0.080541)
(5.10449 -0.00219575 0.0341814)
(5.60976 -0.0588496 0.0335701)
(5.32583 -0.0428843 0.0333002)
(5.30159 -0.0875961 0.0341446)
(5.23877 -0.147652 0.0345764)
(5.21876 -0.163547 0.0350043)
(5.24111 -0.203469 0.0354823)
(5.35896 -0.236212 0.035978)
(5.64168 -0.265933 0.038189)
(4.97555 -0.136649 0.0383286)
(5.10704 -0.00227998 -0.0091485)
(5.61234 -0.0593552 -0.00936122)
(5.32807 -0.0427103 -0.00848402)
(5.30391 -0.087352 -0.00931283)
(5.24124 -0.147326 -0.00922562)
(5.22128 -0.163099 -0.00915435)
(5.24368 -0.203077 -0.00942631)
(5.36123 -0.235608 -0.00999606)
(5.64429 -0.265024 -0.0120223)
(4.98059 -0.136553 -0.0097793)
(5.12149 -0.00130511 -0.0474258)
(5.62736 -0.0582606 -0.0472624)
(5.3406 -0.0424905 -0.0472958)
(5.31617 -0.0860622 -0.0511039)
(5.25518 -0.146427 -0.0512321)
(5.23526 -0.16288 -0.0514251)
(5.25696 -0.203475 -0.0520426)
(5.37358 -0.236078 -0.0525288)
(5.65572 -0.264955 -0.0580566)
(4.99011 -0.137509 -0.0545569)
(5.13773 0.00344718 -0.0724912)
(5.6511 -0.0525112 -0.0730696)
(5.36528 -0.0439622 -0.0782572)
(5.33844 -0.0846687 -0.0895813)
(5.28009 -0.145053 -0.0896262)
(5.25999 -0.162918 -0.0899417)
(5.28027 -0.20414 -0.0898102)
(5.3965 -0.23782 -0.0852453)
(5.67628 -0.26743 -0.0871928)
(4.99871 -0.139263 -0.0851709)
(5.09424 0.0133421 -0.115269)
(5.62639 -0.0286905 -0.120734)
(5.3604 -0.0468327 -0.130859)
(5.31771 -0.0877507 -0.150738)
(5.25968 -0.145086 -0.150651)
(5.23941 -0.164239 -0.150556)
(5.26077 -0.203047 -0.148087)
(5.38095 -0.238506 -0.135775)
(5.6374 -0.2724 -0.128283)
(4.9119 -0.139355 -0.118985)
(4.18345 0.00432737 -0.071668)
(4.71832 -0.0110189 -0.0773881)
(4.55305 -0.0620863 -0.0879524)
(4.48685 -0.115249 -0.0986553)
(4.41537 -0.154301 -0.0965269)
(4.38901 -0.162682 -0.0966586)
(4.40126 -0.182577 -0.0955049)
(4.48329 -0.206566 -0.0882272)
(4.60842 -0.22643 -0.0818219)
(3.84985 -0.106192 -0.0817858)
(3.34526 0.0484554 0.115702)
(4.42869 -0.0610858 0.132321)
(4.48278 -0.235782 0.111198)
(4.33831 -0.243828 0.0955379)
(4.27683 -0.211435 0.0950805)
(4.2405 -0.171015 0.0967677)
(4.23974 -0.111778 0.101952)
(4.22809 -0.0627653 0.117188)
(4.02722 -0.0858439 0.135762)
(3.03066 -0.0754729 0.122253)
(4.17287 0.0434501 0.200166)
(5.35963 0.00810124 0.221708)
(5.50541 -0.207085 0.193414)
(5.34472 -0.239391 0.164935)
(5.27574 -0.206047 0.161037)
(5.2417 -0.169736 0.164959)
(5.23689 -0.10834 0.176894)
(5.19999 -0.0625544 0.204176)
(4.8702 -0.0772943 0.230432)
(3.68557 -0.0540562 0.221102)
(4.25734 0.0466288 0.149206)
(5.42966 0.0329903 0.160571)
(5.58462 -0.218274 0.141375)
(5.40307 -0.247459 0.119617)
(5.33254 -0.206508 0.115203)
(5.30012 -0.166544 0.117743)
(5.30018 -0.0978625 0.12718)
(5.27867 -0.0498732 0.147753)
(4.94385 -0.0704064 0.164723)
(3.71235 -0.0472506 0.155308)
(4.26767 0.0466818 0.100225)
(5.43075 0.0298212 0.10647)
(5.57832 -0.233426 0.0962216)
(5.38762 -0.254555 0.0851589)
(5.31676 -0.207993 0.0822539)
(5.28441 -0.163884 0.0836707)
(5.28568 -0.0898928 0.089297)
(5.27116 -0.0382192 0.0997548)
(4.94704 -0.0614537 0.106342)
(3.70995 -0.0437452 0.101612)
(4.27734 0.0444883 0.0444525)
(5.4334 0.0251825 0.0469008)
(5.57392 -0.240942 0.043697)
(5.37924 -0.258028 0.0406606)
(5.3082 -0.208757 0.0398204)
(5.27594 -0.162184 0.0406829)
(5.27768 -0.0855165 0.0431735)
(5.26607 -0.0313917 0.0470361)
(4.94793 -0.0557513 0.0500243)
(3.70898 -0.0419902 0.0484548)
(4.28199 0.0445551 -0.0117636)
(5.43692 0.0255507 -0.0135091)
(5.57741 -0.241195 -0.0115961)
(5.38273 -0.257936 -0.00805884)
(5.31172 -0.208354 -0.00640457)
(5.27972 -0.161589 -0.00592991)
(5.28177 -0.0847166 -0.0062764)
(5.27105 -0.0308097 -0.00774928)
(4.95354 -0.0559978 -0.00785878)
(3.71271 -0.0418086 -0.00710608)
(4.28052 0.0472765 -0.0698792)
(5.44077 0.031195 -0.0755076)
(5.58853 -0.234342 -0.0666521)
(5.39781 -0.254393 -0.0553663)
(5.32711 -0.206806 -0.0516826)
(5.29558 -0.162141 -0.0519314)
(5.29793 -0.0874223 -0.0557156)
(5.28631 -0.036374 -0.0638977)
(4.96414 -0.0620024 -0.067502)
(3.72173 -0.0431248 -0.0635475)
(4.27721 0.0479808 -0.123791)
(5.44573 0.0362304 -0.134757)
(5.60137 -0.219591 -0.117014)
(5.41975 -0.247217 -0.0948295)
(5.34952 -0.204585 -0.0896763)
(5.31864 -0.163806 -0.0912987)
(5.32112 -0.0938734 -0.0994499)
(5.30452 -0.0467349 -0.11873)
(4.97133 -0.0706912 -0.133008)
(3.72951 -0.0460366 -0.123343)
(4.2001 0.0430939 -0.183296)
(5.38259 0.0130922 -0.204583)
(5.52929 -0.207546 -0.177677)
(5.36861 -0.238669 -0.148436)
(5.2999 -0.203412 -0.143979)
(5.26732 -0.16598 -0.147559)
(5.2645 -0.103099 -0.159472)
(5.23118 -0.0587901 -0.187411)
(4.90018 -0.0772822 -0.212345)
(3.70266 -0.0524871 -0.200581)
(3.37495 0.0468754 -0.110443)
(4.45679 -0.0615185 -0.126425)
(4.51176 -0.236496 -0.105496)
(4.36735 -0.242965 -0.0893528)
(4.30622 -0.208511 -0.0886413)
(4.27067 -0.166538 -0.0900919)
(4.27106 -0.105779 -0.0948207)
(4.26085 -0.0563797 -0.109427)
(4.05714 -0.0788033 -0.128067)
(3.0561 -0.0715842 -0.114951)
(4.14464 -0.095089 0.0932394)
(4.6257 -0.20394 0.088025)
(4.33686 -0.30646 0.0998272)
(4.20941 -0.316786 0.109629)
(4.09017 -0.308206 0.110348)
(4.03913 -0.260051 0.112379)
(4.04319 -0.22305 0.115927)
(4.14611 -0.201104 0.114519)
(4.33804 -0.217963 0.117321)
(3.3708 -0.115392 0.131671)
(5.24662 -0.0425941 0.157396)
(5.77022 -0.231811 0.160047)
(5.4394 -0.290698 0.164518)
(5.3414 -0.281567 0.17823)
(5.25326 -0.287695 0.179601)
(5.21126 -0.251937 0.180765)
(5.23235 -0.232767 0.180713)
(5.38213 -0.20423 0.175715)
(5.72979 -0.231586 0.194663)
(4.90145 -0.149294 0.209096)
(5.353 -0.065647 0.141075)
(5.87837 -0.28152 0.132266)
(5.52668 -0.295101 0.125279)
(5.43446 -0.278697 0.131443)
(5.34988 -0.284977 0.131793)
(5.30936 -0.244813 0.133588)
(5.33266 -0.224591 0.136122)
(5.48122 -0.181212 0.136439)
(5.85718 -0.19445 0.15898)
(5.12988 -0.130857 0.18509)
(5.36736 -0.0798637 0.107174)
(5.88302 -0.301648 0.099362)
(5.52111 -0.301109 0.0926005)
(5.42668 -0.283396 0.0927864)
(5.33983 -0.286858 0.0920145)
(5.2997 -0.241882 0.0933935)
(5.32598 -0.218258 0.0958996)
(5.47667 -0.166548 0.0994265)
(5.86303 -0.174828 0.118092)
(5.16128 -0.119258 0.133634)
(5.36604 -0.0834994 0.0527659)
(5.88001 -0.308809 0.0492354)
(5.51707 -0.305285 0.046711)
(5.42209 -0.286607 0.0460957)
(5.33425 -0.287648 0.045985)
(5.29453 -0.240022 0.0468492)
(5.32286 -0.214392 0.0480848)
(5.47473 -0.159182 0.0500153)
(5.86518 -0.166507 0.0565812)
(5.17287 -0.114322 0.0629444)
(5.36957 -0.0837489 -0.00850044)
(5.88451 -0.309048 -0.00773402)
(5.5215 -0.304824 -0.00410051)
(5.42655 -0.286099 -0.00307439)
(5.33903 -0.287047 -0.00233243)
(5.29935 -0.239151 -0.00214445)
(5.32789 -0.213483 -0.00275369)
(5.47939 -0.157898 -0.00401147)
(5.86932 -0.164351 -0.00995772)
(5.18073 -0.113488 -0.00909578)
(5.38064 -0.0814908 -0.0669434)
(5.89765 -0.303173 -0.0617604)
(5.53452 -0.299805 -0.0537324)
(5.43994 -0.281787 -0.0531572)
(5.35388 -0.285111 -0.0517344)
(5.31376 -0.239397 -0.0520792)
(5.34047 -0.21576 -0.0538801)
(5.48995 -0.16266 -0.0568043)
(5.87581 -0.168267 -0.074942)
(5.18595 -0.116614 -0.0837965)
(5.37517 -0.06894 -0.10875)
(5.90206 -0.284751 -0.101591)
(5.54871 -0.292531 -0.0926795)
(5.45622 -0.27588 -0.0981197)
(5.37289 -0.282209 -0.0977512)
(5.33209 -0.240979 -0.0985546)
(5.35492 -0.221105 -0.100054)
(5.50109 -0.175875 -0.0991002)
(5.8778 -0.18511 -0.121314)
(5.1726 -0.126875 -0.144351)
(5.27811 -0.0439713 -0.136265)
(5.80181 -0.2377 -0.140219)
(5.47081 -0.288142 -0.142024)
(5.37324 -0.277789 -0.155587)
(5.28725 -0.28384 -0.156366)
(5.24585 -0.246996 -0.156518)
(5.26804 -0.228208 -0.15439)
(5.41886 -0.196473 -0.146144)
(5.77171 -0.21932 -0.164269)
(4.97455 -0.144057 -0.18153)
(4.19161 -0.0914528 -0.084222)
(4.66424 -0.204344 -0.0804524)
(4.3754 -0.303419 -0.0909811)
(4.2504 -0.312318 -0.100861)
(4.13423 -0.303092 -0.101323)
(4.08534 -0.253937 -0.103093)
(4.09279 -0.216607 -0.106586)
(4.20119 -0.1933 -0.105716)
(4.40556 -0.213371 -0.108174)
(3.46646 -0.114816 -0.121641)
(2.89442 -0.120363 0.218276)
(4.25571 -0.386953 0.197962)
(4.21871 -0.58649 0.145552)
(3.95204 -0.540839 0.118599)
(3.83376 -0.417015 0.116211)
(3.77876 -0.289152 0.115608)
(3.76744 -0.146054 0.121214)
(3.73013 0.0111205 0.148284)
(3.41717 0.0338799 0.197121)
(2.03766 0.0121804 0.172996)
(4.15136 -0.1287 0.37352)
(5.55789 -0.289025 0.319254)
(5.54706 -0.529737 0.249433)
(5.28686 -0.505678 0.202981)
(5.16566 -0.392683 0.196461)
(5.11389 -0.282173 0.199896)
(5.09827 -0.138909 0.222161)
(5.04802 -0.00320604 0.278296)
(4.6564 0.00485003 0.342138)
(2.91962 0.00047416 0.352923)
(4.44931 -0.139573 0.27132)
(5.7164 -0.293956 0.236584)
(5.6881 -0.56446 0.193065)
(5.41778 -0.520322 0.15783)
(5.29722 -0.390974 0.150548)
(5.2477 -0.274909 0.154257)
(5.23743 -0.116856 0.172405)
(5.21803 0.0281191 0.214622)
(4.87504 0.0205033 0.261506)
(3.14791 -0.00469506 0.266769)
(4.50522 -0.152029 0.163231)
(5.72923 -0.317158 0.151594)
(5.68633 -0.59737 0.129116)
(5.4077 -0.536556 0.11027)
(5.2871 -0.393978 0.105805)
(5.23762 -0.26961 0.108583)
(5.22813 -0.10103 0.119726)
(5.21621 0.056238 0.140202)
(4.89435 0.0438024 0.161715)
(3.18817 -0.00149673 0.158384)
(4.52431 -0.1599 0.0685835)
(5.73668 -0.329703 0.0675411)
(5.68501 -0.611197 0.0611312)
(5.40261 -0.543508 0.0563222)
(5.2816 -0.395145 0.0554824)
(5.23166 -0.266033 0.0571834)
(5.22206 -0.0931337 0.0622082)
(5.2119 0.0685825 0.0691695)
(4.89522 0.0541353 0.0759593)
(3.18663 -0.000226726 0.0741697)
(4.53274 -0.160579 -0.0124384)
(5.74223 -0.330333 -0.0108807)
(5.69108 -0.611677 -0.00677875)
(5.40941 -0.543154 -0.000967049)
(5.28856 -0.39427 0.00177247)
(5.23882 -0.264658 0.00229534)
(5.22983 -0.0911127 0.00170071)
(5.22226 0.0697755 -0.000394184)
(4.90611 0.0535361 -0.00210876)
(3.19668 -0.000282098 0.00185131)
(4.53021 -0.15362 -0.10941)
(5.74552 -0.318981 -0.098226)
(5.704 -0.599641 -0.0782321)
(5.42755 -0.535995 -0.0590495)
(5.3077 -0.391445 -0.0528866)
(5.2591 -0.265428 -0.0536428)
(5.25157 -0.0943656 -0.0609794)
(5.24751 0.0615628 -0.0768492)
(4.92815 0.0439009 -0.0928901)
(3.22038 -0.00108227 -0.0860577)
(4.49441 -0.141239 -0.2259)
(5.74455 -0.296005 -0.192099)
(5.71747 -0.568326 -0.150665)
(5.45046 -0.519631 -0.114593)
(5.33115 -0.386809 -0.105844)
(5.28365 -0.268207 -0.108134)
(5.27797 -0.10566 -0.124577)
(5.27164 0.0381281 -0.164848)
(4.93291 0.0223947 -0.208526)
(3.20265 -0.00396751 -0.20682)
(4.21942 -0.131677 -0.344419)
(5.604 -0.288755 -0.289619)
(5.59139 -0.532534 -0.22182)
(5.33535 -0.50371 -0.173706)
(5.21576 -0.387104 -0.166211)
(5.16615 -0.274221 -0.169355)
(5.15406 -0.126128 -0.19336)
(5.11452 0.00549666 -0.252801)
(4.72677 0.00349673 -0.315997)
(2.98113 -0.00103047 -0.317557)
(2.95473 -0.125891 -0.208717)
(4.31511 -0.385374 -0.187132)
(4.27646 -0.584853 -0.135522)
(4.01235 -0.535991 -0.1073)
(3.89609 -0.410222 -0.104517)
(3.84228 -0.280518 -0.103811)
(3.83047 -0.133389 -0.109282)
(3.79737 0.0203499 -0.134489)
(3.48646 0.040693 -0.18145)
(2.08246 0.0148935 -0.161015)
(4.48009 -0.402985 0.192607)
(4.50261 -0.733993 0.124773)
(3.89492 -0.829328 0.101527)
(3.68703 -0.668803 0.109809)
(3.55028 -0.528823 0.110327)
(3.48101 -0.386172 0.112127)
(3.48997 -0.274055 0.111832)
(3.61469 -0.0809133 0.112409)
(4.01761 -0.0356523 0.166992)
(3.25534 -0.0533927 0.324981)
(5.49625 -0.297394 0.296803)
(5.84038 -0.690263 0.237341)
(5.30881 -0.758938 0.190678)
(5.13425 -0.59334 0.196342)
(5.03005 -0.485724 0.198795)
(4.98121 -0.364724 0.199624)
(4.99598 -0.265889 0.188627)
(5.16318 -0.0256023 0.179359)
(5.67531 0.0464735 0.267595)
(5.1054 -0.0123141 0.403807)
(5.66037 -0.301467 0.256551)
(6.04583 -0.752658 0.209855)
(5.47211 -0.773241 0.162429)
(5.29064 -0.58278 0.15719)
(5.1947 -0.476454 0.156914)
(5.15144 -0.353262 0.158723)
(5.16304 -0.247091 0.157604)
(5.32182 0.0345788 0.157959)
(5.86788 0.151132 0.2112)
(5.37652 0.0650436 0.302327)
(5.69978 -0.322307 0.168082)
(6.06286 -0.804048 0.144343)
(5.46272 -0.801469 0.120266)
(5.27974 -0.591326 0.114972)
(5.18351 -0.478577 0.11351)
(5.14065 -0.348805 0.115072)
(5.15271 -0.236777 0.118409)
(5.3145 0.0633407 0.121876)
(5.88013 0.197928 0.148433)
(5.41091 0.101302 0.187366)
(5.70305 -0.327933 0.0775408)
(6.05775 -0.820087 0.0702268)
(5.45328 -0.812866 0.0656988)
(5.27215 -0.596801 0.0645043)
(5.17529 -0.480382 0.0642962)
(5.13168 -0.346553 0.0651361)
(5.14453 -0.231311 0.0671736)
(5.30965 0.0731837 0.0705418)
(5.88165 0.211502 0.0754212)
(5.4239 0.113021 0.0866103)
(5.7083 -0.326681 -0.00433363)
(6.06414 -0.819379 -0.0039033)
(5.46056 -0.811338 0.00436335)
(5.2799 -0.595486 0.00835366)
(5.18372 -0.479435 0.0104897)
(5.13974 -0.345528 0.0110429)
(5.15178 -0.229338 0.0102654)
(5.31582 0.0736815 0.0124011)
(5.88603 0.211905 0.00275842)
(5.43025 0.113331 0.00335607)
(5.71896 -0.320102 -0.0977502)
(6.08402 -0.80515 -0.0818669)
(5.4844 -0.798644 -0.0557343)
(5.30283 -0.58716 -0.0476994)
(5.20895 -0.475479 -0.0442528)