/*--------------------------------*- C++ -*----------------------------------*\
| =========                 |                                                 |
| \\      /  F ield         | OpenFOAM: The Open Source CFD Toolbox           |
|  \\    /   O peration     | Version:  1.7.x                                 |
|   \\  /    A nd           | Web:      www.OpenFOAM.com                      |
|    \\/     M anipulation  |                                                 |
\*---------------------------------------------------------------------------*/
FoamFile
{
    version     2.0;
    format      ascii;
    class       volScalarField;
    location    "0.4";
    object      alpha1;
}
// * * * * * * * * * * * * * * * * * * * * * * * * * * * * * * * * * * * * * //

dimensions      [0 -3 0 0 1 0 0];

internalField   nonuniform List<scalar> 
8000
(
1.48672e-10
-4.23825e-10
1.67753e-09
3.11096e-09
1.25427e-07
3.87904e-07
2.17718e-07
-1.25824e-07
7.55432e-08
-1.20421e-08
-2.20194e-09
6.88792e-09
-2.98774e-08
-4.19408e-08
-2.35406e-06
-7.21613e-06
-3.95688e-06
1.86639e-06
-1.13943e-06
1.82586e-07
-5.26658e-09
1.40406e-08
-5.74361e-08
-4.36175e-08
-4.15302e-06
-1.28916e-05
-7.16638e-06
2.46198e-06
-2.1812e-06
4.80692e-07
-5.03608e-09
1.29981e-08
-5.62079e-08
-6.16158e-08
-4.25053e-06
-1.27685e-05
-6.78747e-06
2.2221e-06
-2.13582e-06
4.75541e-07
-4.71391e-09
1.20181e-08
-5.43752e-08
-7.40362e-08
-4.22746e-06
-1.24686e-05
-6.46319e-06
2.17914e-06
-2.04704e-06
4.49446e-07
-4.98587e-09
1.28013e-08
-5.69102e-08
-7.4371e-08
-4.34142e-06
-1.2867e-05
-6.68554e-06
2.38838e-06
-2.13676e-06
4.74245e-07
-5.93604e-09
1.55435e-08
-6.40303e-08
-6.15359e-08
-4.58048e-06
-1.39725e-05
-7.49574e-06
2.81893e-06
-2.41202e-06
5.55203e-07
-7.06115e-09
1.87962e-08
-7.17325e-08
-4.33606e-08
-4.736e-06
-1.51375e-05
-8.64857e-06
3.38723e-06
-2.64876e-06
6.18025e-07
-4.09082e-09
1.2344e-08
-4.90683e-08
-4.76173e-08
-3.42962e-06
-1.09373e-05
-6.20027e-06
3.2667e-06
-1.74511e-06
2.94323e-07
2.52864e-10
-6.9353e-10
2.48895e-09
2.87797e-09
1.65045e-07
5.33832e-07
3.14765e-07
-1.82815e-07
1.07238e-07
-1.82367e-08
-5.41395e-10
1.38415e-09
-5.6247e-09
-9.2637e-09
-4.0813e-07
-1.24633e-06
-6.9714e-07
3.43885e-07
-2.47641e-07
4.29821e-08
7.9395e-09
-2.23767e-08
9.80965e-08
1.05086e-07
7.53787e-06
2.28444e-05
1.24847e-05
-4.81275e-06
3.73487e-06
-6.37644e-07
1.90417e-08
-4.588e-08
1.90591e-07
8.38125e-08
1.3463e-05
4.1283e-05
2.30707e-05
-5.13423e-06
7.66799e-06
-1.83682e-06
1.80954e-08
-4.23203e-08
1.86404e-07
1.40426e-07
1.38221e-05
4.08915e-05
2.16225e-05
-4.4922e-06
7.64983e-06
-1.84114e-06
1.68691e-08
-3.90743e-08
1.79984e-07
1.79937e-07
1.37228e-05
3.9816e-05
2.03713e-05
-4.6099e-06
7.27369e-06
-1.72509e-06
1.79099e-08
-4.20275e-08
1.88548e-07
1.77012e-07
1.4021e-05
4.09303e-05
2.09484e-05
-5.35598e-06
7.49003e-06
-1.80591e-06
2.15203e-08
-5.17569e-08
2.12386e-07
1.29627e-07
1.46493e-05
4.41855e-05
2.34433e-05
-6.63613e-06
8.30401e-06
-2.09655e-06
2.57659e-08
-6.27131e-08
2.36445e-07
7.04832e-08
1.48814e-05
4.73396e-05
2.69935e-05
-8.37875e-06
8.84695e-06
-2.28242e-06
1.49734e-08
-4.11258e-08
1.61271e-07
1.05154e-07
1.07006e-05
3.39402e-05
1.88768e-05
-9.3753e-06
5.66331e-06
-1.0311e-06
-9.26275e-10
2.30401e-09
-8.32167e-09
-7.62157e-09
-5.22119e-07
-1.67585e-06
-9.72503e-07
5.27678e-07
-3.46567e-07
6.47318e-08
1.41742e-09
-3.06079e-09
1.35632e-08
2.13319e-08
9.33089e-07
2.81969e-06
1.62263e-06
-5.8075e-07
5.70052e-07
-1.0913e-07
-2.02485e-08
4.97646e-08
-2.41846e-07
-2.30808e-07
-1.80136e-05
-5.39506e-05
-3.00686e-05
7.2548e-06
-8.31754e-06
1.52431e-06
-4.83225e-08
1.03449e-07
-4.7439e-07
-1.66935e-07
-3.24543e-05
-9.82128e-05
-5.6722e-05
2.3556e-06
-1.87532e-05
4.91878e-06
-4.55659e-08
9.53353e-08
-4.65903e-07
-3.07727e-07
-3.34497e-05
-9.72946e-05
-5.25329e-05
1.32304e-06
-1.92877e-05
5.0258e-06
-4.23764e-08
8.8225e-08
-4.50602e-07
-4.03486e-07
-3.31351e-05
-9.44428e-05
-4.89078e-05
2.55948e-06
-1.81869e-05
4.66123e-06
-4.53615e-08
9.66244e-08
-4.72725e-07
-3.89036e-07
-3.35902e-05
-9.65635e-05
-4.99525e-05
4.60148e-06
-1.8332e-05
4.81839e-06
-5.52209e-08
1.21418e-07
-5.30829e-07
-2.65196e-07
-3.45492e-05
-0.000103255
-5.57246e-05
7.25406e-06
-1.97159e-05
5.51065e-06
-6.65723e-08
1.46642e-07
-5.8112e-07
-1.28525e-07
-3.41189e-05
-0.000108662
-6.38194e-05
1.10387e-05
-2.00206e-05
5.81393e-06
-3.89931e-08
9.52007e-08
-3.94661e-07
-2.148e-07
-2.4411e-05
-7.74437e-05
-4.32618e-05
1.799e-05
-1.22515e-05
2.46703e-06
2.44528e-09
-5.2625e-09
1.97575e-08
1.53274e-08
1.12713e-06
3.61975e-06
2.13343e-06
-9.95664e-07
7.72082e-07
-1.62606e-07
-3.78161e-09
6.21168e-09
-3.07072e-08
-4.38221e-08
-2.07971e-06
-6.21067e-06
-3.6639e-06
8.06647e-07
-1.33862e-06
2.85543e-07
5.51887e-08
-1.08096e-07
5.72388e-07
3.18618e-07
4.20537e-05
0.000124609
7.04413e-05
-8.10115e-06
2.11273e-05
-4.13141e-06
1.29575e-07
-2.22429e-07
1.12183e-06
-5.79402e-08
7.61966e-05
0.000227775
0.000135331
1.82149e-05
5.18504e-05
-1.52611e-05
1.20411e-07
-2.02684e-07
1.10171e-06
2.39834e-07
7.88314e-05
0.000225701
0.000123625
1.95641e-05
5.49856e-05
-1.60596e-05
1.11799e-07
-1.88364e-07
1.06638e-06
4.52134e-07
7.78742e-05
0.000218476
0.000113625
1.38968e-05
5.15429e-05
-1.48025e-05
1.21365e-07
-2.12662e-07
1.12107e-06
3.91267e-07
7.81574e-05
0.000221979
0.000115249
8.00931e-06
5.07386e-05
-1.50728e-05
1.50584e-07
-2.75753e-07
1.25501e-06
8.19339e-08
7.8785e-05
0.000234468
0.000128166
2.252e-06
5.26207e-05
-1.68638e-05
1.83502e-07
-3.3322e-07
1.34714e-06
-1.73581e-07
7.50074e-05
0.000241071
0.000145919
-6.557e-06
5.07569e-05
-1.70722e-05
1.08931e-07
-2.17353e-07
9.18032e-07
1.86863e-07
5.34442e-05
0.000170931
9.57898e-05
-3.45546e-05
2.97862e-05
-6.69422e-06
-6.5985e-09
1.12088e-08
-4.3687e-08
-2.31991e-08
-2.32542e-06
-7.51633e-06
-4.50887e-06
1.74928e-06
-1.73091e-06
4.20326e-07
9.28547e-09
-1.12703e-08
6.67439e-08
9.29375e-08
4.34274e-06
1.2865e-05
7.96877e-06
-4.69997e-07
3.00846e-06
-7.1634e-07
-1.26966e-07
2.01052e-07
-1.26733e-06
-4.92584e-07
-9.21544e-05
-0.000269555
-0.000155769
-5.25424e-06
-4.57864e-05
9.18249e-06
-2.92075e-07
4.2005e-07
-2.49327e-06
4.63793e-07
-0.000167364
-0.000493115
-0.000305662
-9.98157e-05
-0.000121926
3.89969e-05
-2.66574e-07
3.81705e-07
-2.45724e-06
-1.96751e-07
-0.000173729
-0.000488641
-0.000275746
-0.000100251
-0.000133626
4.23346e-05
-2.48055e-07
3.60337e-07
-2.38721e-06
-6.51515e-07
-0.000170887
-0.000471439
-0.000250249
-8.06158e-05
-0.000124705
3.87769e-05
-2.75949e-07
4.26123e-07
-2.51606e-06
-4.81089e-07
-0.00016919
-0.000475149
-0.000252142
-6.4742e-05
-0.000119741
3.87741e-05
-3.51568e-07
5.72579e-07
-2.79497e-06
1.94603e-07
-0.000166
-0.00049384
-0.000279417
-5.30025e-05
-0.000119383
4.2239e-05
-4.32165e-07
6.8095e-07
-2.90088e-06
5.75988e-07
-0.000150217
-0.000491797
-0.00031512
-3.35531e-05
-0.000108756
4.08555e-05
-2.59149e-07
4.33679e-07
-1.96679e-06
-2.08841e-07
-0.000106701
-0.000347066
-0.000199045
5.44424e-05
-6.03042e-05
1.48596e-05
1.64879e-08
-2.22116e-08
9.18956e-08
3.52202e-08
4.33086e-06
1.43184e-05
9.05878e-06
-2.55486e-06
3.62859e-06
-1.03473e-06
-2.42548e-08
1.66883e-08
-1.31787e-07
-1.45929e-07
-8.7459e-06
-2.57661e-05
-1.66938e-05
-1.86815e-06
-7.14021e-06
1.94581e-06
3.20993e-07
-3.45478e-07
2.6081e-06
-8.00653e-07
0.000190451
0.000550327
0.000320744
5.93248e-05
0.000114688
-2.50974e-05
6.98139e-07
-6.93433e-07
5.07208e-06
-4.54178e-06
0.00034469
0.00100282
0.000644369
0.000347375
0.000315638
-0.000124065
6.12927e-07
-6.13998e-07
4.98388e-06
-3.47734e-06
0.000358375
0.00099275
0.000572495
0.000342606
0.000353965
-0.000139928
5.73693e-07
-5.98962e-07
4.85253e-06
-2.60494e-06
0.000350151
0.000953769
0.000511768
0.000282795
0.000329546
-0.000127937
6.65966e-07
-7.72887e-07
5.13172e-06
-3.00484e-06
0.00034028
0.000950954
0.000511304
0.00023992
0.000308944
-0.000125352
8.83361e-07
-1.10113e-06
5.64968e-06
-4.20538e-06
0.000321963
0.000966986
0.000563417
0.000213576
0.000295992
-0.000131983
1.10294e-06
-1.28791e-06
5.60339e-06
-3.99474e-06
0.00027137
0.000921514
0.000627493
0.000168321
0.000256957
-0.000120947
6.81611e-07
-8.19232e-07
3.81338e-06
-1.47004e-06
0.000192863
0.00064856
0.000378794
-7.87359e-05
0.000139566
-4.03467e-05
-4.42666e-08
3.8967e-08
-1.72509e-07
7.36674e-09
-7.4042e-06
-2.56341e-05
-1.73032e-05
2.95853e-06
-7.99215e-06
2.76045e-06
5.42899e-08
-1.77422e-08
2.56175e-07
2.32262e-07
1.65779e-05
4.83541e-05
3.30902e-05
1.00966e-05
1.59385e-05
-4.86134e-06
-6.3137e-07
4.41698e-07
-5.05968e-06
3.82407e-06
-0.000373666
-0.00105801
-0.000614245
-0.000212274
-0.000239262
5.18374e-05
-1.29408e-06
8.66402e-07
-9.73796e-06
1.23581e-05
-0.000671199
-0.00191283
-0.00127646
-0.000961817
-0.000670873
0.000295287
-1.06788e-06
7.44031e-07
-9.54488e-06
1.026e-05
-0.000697252
-0.00188989
-0.00111964
-0.000944877
-0.000769611
0.00034552
-1.01621e-06
7.9713e-07
-9.33864e-06
8.54428e-06
-0.000673997
-0.0018043
-0.000984891
-0.000786472
-0.00071542
0.000315096
-1.27736e-06
1.22344e-06
-9.91548e-06
9.24063e-06
-0.000638628
-0.00177271
-0.000974859
-0.000679915
-0.00065747
0.000302293
-1.80341e-06
1.90168e-06
-1.07483e-05
1.0901e-05
-0.000575658
-0.00175072
-0.00106643
-0.000621285
-0.000609787
0.000307545
-2.27524e-06
2.12012e-06
-9.91453e-06
8.34401e-06
-0.000437421
-0.00156617
-0.0011658
-0.000518659
-0.000506913
0.000266873
-1.41655e-06
1.26279e-06
-6.68525e-06
3.74982e-06
-0.00031172
-0.00109893
-0.000661936
8.15357e-05
-0.000266073
8.25586e-05
1.03232e-07
-6.39617e-08
3.1577e-07
-1.13703e-07
1.08532e-05
4.07541e-05
3.06289e-05
-6.92817e-07
1.61571e-05
-6.6437e-06
-1.35122e-07
-1.16646e-08
-4.16939e-07
-2.39348e-08
-2.95312e-05
-8.65726e-05
-6.25371e-05
-3.32528e-05
-3.88916e-05
1.48105e-05
1.44515e-06
-4.16125e-07
9.22389e-06
-2.00257e-05
0.000692893
0.00192224
0.00107378
0.000602522
0.000592589
-0.00015547
2.49541e-06
-6.04827e-07
1.71904e-05
-4.6284e-05
0.00122428
0.00342395
0.00232964
0.0023774
0.00153951
-0.000970388
1.75847e-06
-4.24557e-07
1.66517e-05
-4.39739e-05
0.00126547
0.00336957
0.00200949
0.00231161
0.00176497
-0.00116496
1.7598e-06
-7.41224e-07
1.63499e-05
-4.04531e-05
0.00120352
0.00318711
0.0017295
0.00192473
0.00163842
-0.00106187
2.62324e-06
-1.75646e-06
1.74532e-05
-4.02748e-05
0.00110096
0.0030655
0.00168485
0.00166719
0.00147836
-0.000997393
4.10322e-06
-3.11317e-06
1.85507e-05
-3.93268e-05
0.000927495
0.00290421
0.00181661
0.00152457
0.0013314
-0.000978339
5.27785e-06
-3.20452e-06
1.52839e-05
-2.50899e-05
0.000597545
0.00235979
0.00193844
0.00130469
0.00108442
-0.000810804
3.46436e-06
-1.78579e-06
1.02567e-05
-1.40524e-05
0.000431581
0.00165554
0.00101024
-3.54133e-05
0.000601877
-0.000239233
-2.73392e-07
7.15228e-08
-4.63784e-07
5.76571e-07
-1.21933e-05
-5.61145e-05
-4.93879e-05
-8.2576e-06
-3.66271e-05
1.96426e-05
2.3741e-07
1.10207e-07
6.93824e-07
-6.83994e-07
4.95352e-05
0.000144366
0.000109505
8.72817e-05
8.21141e-05
-3.4218e-05
-2.12615e-06
-5.72292e-07
-1.61483e-05
5.59369e-05
-0.00123176
-0.00328361
-0.00165656
-0.00136784
-0.00112516
0.000305744
-2.76474e-06
-1.75507e-06
-2.92508e-05
0.000114022
-0.00213154
-0.00575774
-0.00393163
-0.00519437
-0.00278566
0.00205689
-1.03938e-06
-1.80341e-06
-2.80588e-05
0.000110074
-0.00218104
-0.00564202
-0.00335583
-0.00505532
-0.00323085
0.00255344
-1.40805e-06
-6.92776e-07
-2.78128e-05
0.000101646
-0.00202545
-0.00526476
-0.00281596
-0.00419674
-0.00300405
0.00232663
-3.61111e-06
1.59594e-06
-2.98925e-05
9.65894e-05
-0.00176524
-0.00490956
-0.00268362
-0.00362465
-0.00268143
0.00214304
-6.84847e-06
4.21221e-06
-3.08294e-05
8.49116e-05
-0.00135066
-0.00437597
-0.00283225
-0.00329915
-0.00237549
0.00203357
-8.84705e-06
3.6851e-06
-2.0948e-05
3.99525e-05
-0.000645668
-0.00301839
-0.00291528
-0.00284125
-0.00189483
0.00160021
-5.71787e-06
1.38686e-06
-1.35081e-05
2.4238e-05
-0.000484154
-0.00210828
-0.00128992
-0.000121841
-0.0010609
0.000450449
5.39069e-07
-6.27761e-08
6.96772e-07
-1.23871e-06
6.06845e-06
5.83688e-05
7.03332e-05
3.27629e-05
7.19584e-05
-4.22915e-05
-4.20877e-07
-4.12648e-07
-8.29857e-07
3.89727e-06
-7.44779e-05
-0.000220258
-0.000173444
-0.000208939
-0.000192448
0.000132681
3.39619e-06
3.097e-06
2.84704e-05
-0.000169052
0.00209085
0.00530725
0.00210682
0.00303149
0.00259211
-0.00118881
-3.90316e-09
6.86975e-06
4.98201e-05
-0.000311547
0.00350711
0.00907582
0.00586815
0.0103702
0.00510678
-0.00688446
-4.9696e-06
6.02376e-06
4.75285e-05
-0.000306807
0.00352673
0.00882997
0.00491873
0.0099307
0.00571764
-0.00842447
-2.64899e-06
2.8156e-06
4.7607e-05
-0.000282338
0.0031647
0.00806978
0.00394754
0.00820033
0.00533231
-0.00769011
4.59067e-06
-2.22514e-06
5.10747e-05
-0.000252854
0.00257595
0.00718233
0.00360685
0.00701706
0.00472065
-0.00698948
1.38042e-05
-7.17948e-06
5.02484e-05
-0.000196995
0.00170071
0.00583558
0.00369587
0.00630069
0.00413334
-0.00647637
1.79288e-05
-4.56972e-06
2.45795e-05
-6.05541e-05
0.000368608
0.00291902
0.00370783
0.00552915
0.00333811
-0.00507036
1.21175e-05
-5.03535e-07
1.50246e-05
-4.23401e-05
0.000340902
0.00203723
0.00112607
0.000585347
0.00224219
-0.00157976
-1.22799e-06
-8.93658e-08
-7.12496e-07
1.73836e-06
1.87684e-05
-1.30891e-05
-7.04195e-05
-9.18729e-05
-0.000163411
0.000155951
4.54318e-08
7.11862e-07
6.72287e-07
-7.55112e-06
5.67365e-05
0.000169411
0.000136599
0.000273253
0.000213302
-9.85858e-05
7.46733e-07
-7.46943e-06
-3.40895e-05
0.000287531
-0.00214353
-0.00489469
-0.000714336
-0.00359114
-0.00253275
0.00144669
1.09261e-05
-1.33659e-05
-5.92408e-05
0.000489681
-0.00338455
-0.00807699
-0.00438856
-0.0121144
-0.00433182
0.00760111
1.64749e-05
-1.03967e-05
-5.74359e-05
0.000477144
-0.00327939
-0.00775827
-0.00358505
-0.0115075
-0.00482472
0.00955809
1.14547e-05
-4.96933e-06
-5.80357e-05
0.000424217
-0.00276573
-0.00680903
-0.00260216
-0.00942906
-0.00456716
0.00872999
6.86577e-07
1.8665e-06
-6.06839e-05
0.00034833
-0.00198154
-0.00551953
-0.00216648
-0.00798752
-0.00407287
0.0077915
-1.13051e-05
7.87038e-06
-5.48772e-05
0.000224497
-0.000921558
-0.00365309
-0.00219356
-0.00706801
-0.00359402
0.00700885
-1.35774e-05
3.59211e-06
-1.3037e-05
-7.14698e-06
0.000447405
-0.000138978
-0.00228709
-0.00629501
-0.00284351
0.00521148
-7.46392e-06
-1.07148e-06
-7.41378e-06
9.5263e-06
0.000169081
-0.000119378
0.000157915
-0.000976144
-0.00202293
0.00165266
9.40713e-07
1.65006e-07
4.19494e-07
2.16044e-06
-4.96241e-05
-0.000103649
-1.41239e-06
0.000139817
0.00019316
-0.000102195
1.24477e-08
-9.54316e-07
2.63941e-06
-3.37554e-06
-3.9704e-05
-7.48577e-05
-4.58765e-06
-0.000162564
-0.000401116
-2.66303e-05
-6.23388e-08
2.48576e-05
-6.5784e-05
6.10559e-05
0.0018282
0.00360416
-0.000612783
0.00208367
0.00508513
0.000204353
-2.63629e-06
4.54679e-05
-0.000110087
8.76047e-05
0.00274728
0.00525922
-0.000152699
0.00876057
0.0142222
-0.000101551
-4.33295e-06
4.38217e-05
-0.000104773
9.31115e-05
0.00258009
0.00506747
-0.000562877
0.00758742
0.0153784
-0.000232354
-3.94154e-06
3.54748e-05
-8.48329e-05
7.15361e-05
0.00210213
0.00440529
-0.000730246
0.00576936
0.0136668
-0.000247901
-2.91949e-06
2.36542e-05
-5.65784e-05
3.12392e-05
0.00142137
0.00338102
-0.000685265
0.00474409
0.0120278
-0.000275451
-1.67958e-06
8.0807e-06
-2.16927e-05
-9.90225e-06
0.00055606
0.00194262
-0.000342297
0.00424608
0.0107499
-0.000310096
1.48395e-07
-9.50883e-06
1.21424e-05
-1.50703e-05
-0.000434293
-0.000620071
-0.000103357
0.0041719
0.00861768
-0.00025662
9.59229e-07
-4.10759e-06
3.5909e-06
-9.71439e-06
-0.000165037
-6.28412e-05
-0.000312798
-0.000113023
0.00329217
-3.31264e-05
-3.52944e-08
4.03397e-07
-5.76634e-07
2.61158e-06
3.51366e-05
0.000111292
0.000103543
-2.68356e-05
-0.000323899
-1.41573e-05
-4.81548e-08
8.84626e-08
-2.68748e-07
-5.91431e-07
6.17649e-05
0.000140907
-1.61139e-05
0.000119421
0.000505275
4.5062e-05
1.46171e-06
6.93941e-07
1.1673e-05
2.32463e-05
-0.00300451
-0.00648801
0.00116042
-0.00187797
-0.00703965
-0.000964397
4.23891e-06
1.71952e-06
7.18978e-06
9.5227e-05
-0.00436958
-0.00975259
-0.000552801
-0.00982038
-0.0167586
-0.00264031
5.22595e-06
5.29063e-06
-3.58559e-06
0.000110256
-0.00403439
-0.00921131
-3.80375e-05
-0.00798582
-0.0171848
-0.00272378
5.51147e-06
1.01683e-05
-1.97925e-05
0.000137162
-0.00320669
-0.00787544
0.000364683
-0.00570235
-0.015101
-0.0024313
5.89108e-06
1.54679e-05
-3.93331e-05
0.000172363
-0.00204281
-0.00603036
0.000310648
-0.00443613
-0.0131451
-0.00214428
6.16109e-06
1.89659e-05
-5.42717e-05
0.000177229
-0.000582582
-0.00353289
-0.000446805
-0.00387519
-0.0116134
-0.00190757
4.72281e-06
1.26663e-05
-4.00571e-05
7.0485e-05
0.00101918
0.000862789
-0.000908306
-0.00434274
-0.00948492
-0.00160709
2.3738e-06
6.34281e-06
-2.31632e-05
5.01321e-05
0.000528107
0.000315344
0.000268864
0.00053591
-0.00401739
-0.000688185
-2.69634e-08
-1.70311e-07
1.08235e-06
-3.47611e-06
-6.27572e-05
-0.000169143
-0.000160246
-4.89727e-05
0.000438474
4.92851e-05
-2.21882e-07
-1.17869e-06
2.86666e-06
-6.91444e-06
-4.65594e-05
-5.61274e-05
0.000147817
8.20504e-05
-0.000524863
-0.00012089
2.72022e-06
2.09282e-05
-7.69548e-05
0.000275014
0.00336854
0.00701667
-0.00250431
4.7686e-05
0.0102422
0.0014233
6.22578e-06
3.98922e-05
-0.000118734
0.000346746
0.00445085
0.00922909
-0.00251725
0.00794385
0.0239808
0.00395964
6.2871e-06
3.80046e-05
-0.000103515
0.000299274
0.003878
0.00845226
-0.00271629
0.00535629
0.0239723
0.00423608
5.48782e-06
3.20249e-05
-7.64931e-05
0.00019162
0.00283479
0.00690191
-0.00251688
0.00298138
0.0206899
0.00375197
4.44812e-06
2.48998e-05
-4.38548e-05
4.85918e-05
0.00145671
0.00470196
-0.00187922
0.00201593
0.0178491
0.00330222
2.98659e-06
1.51581e-05
-6.59801e-06
-8.51456e-05
-0.000151074
0.00184777
-0.000298825
0.00207525
0.0157145
0.00296176
1.11854e-06
2.17507e-06
2.3959e-05
-0.000121436
-0.00159234
-0.00268679
0.000319643
0.00382872
0.0128699
0.00236738
9.71429e-07
3.29125e-06
1.21226e-05
-8.00153e-05
-0.000963739
-0.00139957
0.000227102
-0.00100414
0.00483181
0.000605143
-1.24377e-07
-2.87712e-07
-1.81036e-07
6.10041e-06
6.88781e-05
0.000229314
0.000263799
0.000201995
-0.000504732
2.23033e-06
4.72237e-09
-3.96932e-07
-3.19483e-07
4.73253e-06
5.03017e-05
5.54466e-05
-0.000233652
-0.000357806
0.00146293
0.000796548
-2.86469e-07
2.59111e-06
3.1431e-05
-0.000367131
-0.0045886
-0.0107378
0.00257067
0.00213628
-0.01592
-0.00515412
-1.30212e-07
9.83466e-06
2.49164e-05
-0.000355029
-0.00570243
-0.0139041
0.00177674
-0.00717822
-0.0317158
-0.00855936
4.36846e-07
1.41558e-05
3.68522e-06
-0.000237187
-0.00481362
-0.0124494
0.00200847
-0.00386781
-0.0299387
-0.00769978
1.03509e-06
1.67369e-05
-1.74004e-05
-6.0989e-05
-0.0033629
-0.0100274
0.00171642
-0.00128256
-0.025487
-0.0063737
1.70434e-06
1.87652e-05
-3.89026e-05
0.00014806
-0.0015036
-0.00687205
0.000527231
-0.000563581
-0.0217804
-0.0052134
2.43839e-06
1.9865e-05
-5.8276e-05
0.000316446
0.000599874
-0.00290327
-0.00219107
-0.00136341
-0.0190591
-0.00429594
2.67533e-06
1.63649e-05
-5.68898e-05
0.000298723
0.00229249
0.00305277
-0.00258918
-0.0047108
-0.016269
-0.00354737
1.26781e-06
9.72161e-06
-3.79905e-05
0.000214304
0.00156464
0.0019851
-0.0015626
0.00041735
-0.00699012
-0.00203132
-8.66997e-08
-6.72681e-07
1.04416e-06
-9.70368e-06
-7.73583e-05
-0.000243999
-0.000318368
-0.000402822
0.00108456
0.000532597
-5.26257e-08
-3.45971e-07
9.6557e-07
-5.75769e-06
-1.2223e-05
7.64413e-05
0.000316044
0.000966904
-0.00521973
0.00263314
6.2051e-07
4.52372e-06
-4.18492e-05
0.000672742
0.0054177
0.0139514
-0.00106805
-0.00464831
0.0239978
-0.00216882
1.80587e-06
1.13443e-05
-5.20311e-05
0.000677071
0.00593341
0.0159257
-0.000556533
0.00748823
0.0425726
0.011417
1.80343e-06
1.11926e-05
-3.52852e-05
0.000469581
0.00461722
0.0136442
-0.000870523
0.00312223
0.0386389
0.0126726
1.52066e-06
1.02592e-05
-2.01887e-05
0.000181406
0.00276422
0.010363
-0.000217868
0.000293781
0.0327918
0.0115708
1.24427e-06
9.74203e-06
-6.55464e-06
-0.000144682
0.000502579
0.0061292
0.00179004
0.000238535
0.0279353
0.0105132
8.64492e-07
8.5237e-06
9.98237e-06
-0.00041139
-0.00188396
0.000894745
0.00561936
0.0025968
0.0243876
0.00955023
3.16892e-07
5.51058e-06
2.2738e-05
-0.000434663
-0.00332975
-0.00587932
0.00461618
0.00816516
0.0216333
0.00815288
1.30498e-07
2.62561e-06
1.886e-05
-0.000335032
-0.00254109
-0.00449959
0.00318149
0.00250724
0.0100114
0.00201653
-2.37988e-08
-3.58512e-07
5.02635e-07
1.08113e-05
7.91515e-05
0.000271115
0.000349883
0.000693027
-0.00389428
-0.000726095
1.36295e-08
9.93533e-09
1.09035e-06
-3.47369e-06
-4.70283e-05
-0.000263449
-0.000303587
-0.00193016
0.0136363
-0.0222771
-1.31789e-07
2.14354e-07
-1.31139e-05
-0.000880519
-0.00662071
-0.0196756
-0.00484413
0.00446882
-0.0357338
0.0371355
-1.72911e-07
4.08472e-06
-3.55524e-05
-0.000715746
-0.00651924
-0.0209784
-0.00570116
-0.0128406
-0.0598756
0.0387237
4.65516e-08
6.17281e-06
-4.26574e-05
-0.000374323
-0.00470841
-0.0174383
-0.00480651
-0.00712046
-0.0529585
0.0261149
1.57017e-07
5.9821e-06
-3.79857e-05
3.47592e-05
-0.00236138
-0.0126968
-0.00536007
-0.00374147
-0.0452888
0.01862
2.01884e-07
5.24684e-06
-2.94548e-05
0.000462883
0.000375384
-0.00679106
-0.00791896
-0.00434218
-0.0387947
0.0129686
2.88796e-07
4.73453e-06
-2.60359e-05
0.000772752
0.0030789
0.000338414
-0.0121501
-0.0084082
-0.0340191
0.0088457
3.88452e-07
4.06256e-06
-2.49954e-05
0.000714187
0.00425991
0.00815347
-0.00749871
-0.0156505
-0.0311451
0.00744346
1.23291e-07
1.7831e-06
-2.36027e-05
0.000585319
0.00356936
0.007411
-0.00409238
-0.009828
-0.0156439
0.00661166
-4.00687e-09
-1.2696e-07
-3.95955e-07
-1.16034e-05
-5.60062e-05
-0.000210976
-0.000327168
-0.0011399
0.0106918
-0.0105161
-4.13555e-09
-1.32912e-07
-1.76233e-06
2.20402e-05
0.000177825
0.000681909
0.000356337
0.00121513
-0.00501018
0.0638252
9.31973e-08
2.316e-06
6.2164e-05
0.00115837
0.00738746
0.0255038
0.0183533
0.00504284
0.0605925
-0.0462725
-2.67375e-08
8.38252e-07
6.57999e-05
0.000831444
0.00613387
0.023945
0.0172114
0.0284201
0.0803437
-0.0815854
-1.16525e-07
4.05999e-07
4.293e-05
0.0003381
0.00375838
0.0188868
0.0152732
0.019992
0.0725098
-0.0651704
-6.47097e-08
1.25424e-06
7.44678e-06
-0.000210528
0.000932097
0.0124221
0.0151684
0.0154827
0.0644044
-0.0508896
3.94203e-08
2.17098e-06
-3.07016e-05
-0.000742388
-0.00217196
0.00442679
0.0171825
0.0161857
0.0566471
-0.0409779
1.15197e-07
2.72964e-06
-5.20659e-05
-0.00108194
-0.00493795
-0.00494814
0.0193566
0.0210067
0.0506358
-0.0339269
5.86174e-08
1.76404e-06
-4.34038e-05
-0.000935439
-0.00543726
-0.0129333
0.00767162
0.0276947
0.0472629
-0.0262298
-5.64574e-09
3.89473e-08
-2.3671e-05
-0.000818953
-0.00485525
-0.0126208
0.00148883
0.0229984
0.030066
-0.00222966
8.78009e-09
1.25651e-07
2.20232e-06
5.34161e-06
1.11921e-06
5.79251e-05
0.000252248
0.000625638
-0.00958645
0.0401294
2.71819e-08
5.8358e-07
3.54484e-06
-6.22922e-05
-0.000385927
-0.00149402
-0.00147836
0.018089
-0.0585198
-0.125026
-5.9649e-07
-1.06729e-05
-0.000145892
-0.00131966
-0.00785764
-0.0316352
-0.0445651
-0.0406282
-0.113032
0.00743515
-5.78752e-07
-1.03649e-05
-0.000128562
-0.00068739
-0.00539809
-0.0265377
-0.0371462
-0.0643508
-0.120103
0.0484221
-4.02814e-07
-7.60578e-06
-5.91804e-05
-1.45399e-05
-0.00246677
-0.0196145
-0.0334142
-0.0526779
-0.114482
0.039237
-3.40757e-07
-5.25669e-06
2.12028e-05
0.000670047
0.000797784
-0.0109081
-0.0310495
-0.0459862
-0.108552
0.0302798
-2.37445e-07
-2.17584e-06
9.47213e-05
0.00126717
0.00410502
-0.000427432
-0.029669
-0.0440752
-0.0993388
0.0267913
-1.30031e-07
3.22381e-07
0.000129995
0.00156346
0.00664678
0.0110748
-0.0249734
-0.0449534
-0.0893639
0.0265649
2.77649e-09
2.07931e-06
0.000102894
0.0012366
0.00624228
0.017777
-0.00217566
-0.0442053
-0.0841809
0.0197248
6.49335e-08
2.46023e-06
7.76153e-05
0.00112142
0.00584716
0.0182676
0.00864359
-0.0419215
-0.0693654
-0.0192266
-1.23965e-08
-2.41124e-07
-3.65046e-06
1.27229e-05
0.000121407
0.000334569
-5.1565e-05
0.00621824
-0.0168517
-0.0875901
-4.01673e-08
-1.16934e-06
-3.63598e-06
0.000126023
0.000697794
0.00297162
0.0069422
-0.0236343
0.0964875
0.158571
1.29778e-06
2.24867e-05
0.000230527
0.00139382
0.00748812
0.0343883
0.0814594
0.118181
0.0896054
0.0366908
2.12951e-06
2.61849e-05
0.000129708
0.000463485
0.00369787
0.0244394
0.0613883
0.116974
0.101218
0.0230343
1.96451e-06
1.81512e-05
-9.3861e-06
-0.000385887
0.000262914
0.0155695
0.0548345
0.106704
0.129469
0.0230702
1.29032e-06
6.65702e-06
-0.000145249
-0.00119224
-0.0032956
0.00464957
0.0474835
0.0950683
0.148134
0.023594
3.614e-07
-5.64707e-06
-0.000252818
-0.0018041
-0.00650118
-0.00788432
0.0376725
0.0826924
0.161119
0.0288967
-4.19462e-07
-1.39875e-05
-0.000286713
-0.00199095
-0.00840922
-0.0201426
0.0196617
0.0685107
0.166975
0.0472631
-6.79614e-07
-1.44752e-05
-0.000211849
-0.0014556
-0.0069011
-0.0231252
-0.0148915
0.0480203
0.158465
0.0892982
-3.63407e-07
-1.00411e-05
-0.000176256
-0.00135107
-0.00655628
-0.0236825
-0.0303809
0.0434506
0.123618
0.163328
1.34463e-08
5.38751e-07
6.32536e-06
-5.11346e-05
-0.000333017
-0.00119337
-0.000493367
0.00300533
0.0559436
0.281165
-5.94071e-09
1.03945e-06
-9.40264e-06
-0.00022359
-0.00110988
-0.0048593
-0.0137985
-0.0494041
0.0391565
0.154996
-5.53353e-07
-3.58284e-05
-0.00029173
-0.00123908
-0.00619182
-0.0309797
-0.120022
-0.16014
0.0982774
0.299311
-1.38519e-06
-3.86865e-05
-5.74645e-05
3.34901e-05
-0.00142512
-0.017168
-0.0840399
-0.126215
0.122518
0.341462
-1.35215e-06
-1.9053e-05
0.000161082
0.00104766
0.0023287
-0.00650048
-0.0727801
-0.11744
0.10567
0.413162
-8.73446e-07
6.18908e-06
0.000349929
0.00192647
0.00590864
0.00606327
-0.0557411
-0.0981694
0.0783832
0.53564
-2.27575e-07
2.95207e-05
0.000467752
0.00245576
0.0085751
0.0189082
-0.0310857
-0.0702218
0.048667
0.69816
3.10282e-07
4.2321e-05
0.000462232
0.00243589
0.0094433
0.0287986
0.00423639
-0.0382715
0.0292584
0.882457
4.64671e-07
3.5154e-05
0.000309545
0.00165877
0.00691615
0.0255821
0.0425386
-0.00261235
0.0271116
1.04712
1.42633e-07
2.24615e-05
0.000284605
0.00152828
0.00656477
0.0255551
0.0577753
0.0182237
0.0246329
1.08956
4.37148e-09
-5.43204e-07
-2.6971e-06
0.000124915
0.000652277
0.00270404
0.00545312
-0.0323554
0.0235131
0.798708
4.66585e-09
9.57044e-08
3.01028e-05
0.00029319
0.00169007
0.00854481
0.03753
0.0461833
-0.0654423
0.69348
6.84819e-07
2.83795e-05
0.000117688
0.000615197
0.00464445
0.0284098
0.158808
-0.138789
-0.0330445
1.0222
1.00414e-06
1.23566e-05
-0.000112102
-0.00071335
-0.00106774
0.00996394
0.10802
-0.184748
0.0344972
1.0438
5.73723e-07
-1.16307e-05
-0.000282851
-0.00169714
-0.00520486
-0.00308622
0.0871331
-0.197608
0.0580322
1.10068
-5.45789e-08
-3.39789e-05
-0.000407542
-0.00242606
-0.00875951
-0.0171629
0.0518336
-0.192474
0.0980966
1.18852
-6.41878e-07
-4.87679e-05
-0.000439506
-0.00265278
-0.0107023
-0.0290635
0.00593389
-0.170844
0.15447
1.2905
-9.64268e-07
-4.99825e-05
-0.000362826
-0.0023208
-0.0104537
-0.0353286
-0.0439103
-0.142666
0.212228
1.40043
-7.98948e-07
-3.39778e-05
-0.000210135
-0.00145465
-0.00714028
-0.027798
-0.0705979
-0.117422
0.247282
1.50504
-3.92136e-07
-2.52584e-05
-0.000194098
-0.00128196
-0.0066535
-0.0279393
-0.0757851
-0.132817
0.198269
1.56377
-6.53769e-09
1.50044e-07
-1.19171e-05
-0.000198092
-0.00108889
-0.00487571
-0.0138768
-0.0254061
-0.00991624
1.38473
-8.85636e-09
-9.65938e-07
-3.82696e-05
-0.00033149
-0.00200179
-0.0112529
-0.0541025
-0.0230056
0.0254086
1.09096
-9.60812e-07
-2.73827e-05
-9.55634e-05
-0.000301414
-0.00184679
-0.015463
-0.0732938
0.0925444
0.0987392
1.34056
-1.04163e-06
-6.90782e-06
0.000129045
0.00117914
0.00419971
0.00455148
-0.0271262
0.18134
0.0783083
1.39144
-3.51782e-07
2.08345e-05
0.000331058
0.00221918
0.0082263
0.0184382
0.00690124
0.184936
0.0724801
1.44897
4.66171e-07
4.55402e-05
0.000473602
0.00286994
0.0111466
0.0314258
0.050737
0.129471
0.105664
1.54211
1.1356e-06
5.96277e-05
0.000503133
0.00289656
0.0117713
0.0386156
0.0902157
0.0349582
0.224005
1.61386
1.43107e-06
5.84365e-05
0.00042482
0.00241308
0.0102475
0.0380897
0.112204
-0.0315691
0.389962
1.6347
1.13851e-06
3.97078e-05
0.000264475
0.00152176
0.00658951
0.0257647
0.0909081
-0.0330906
0.509808
1.62055
6.7582e-07
2.92103e-05
0.000210504
0.00127965
0.00598069
0.0258337
0.0819162
0.0182568
0.483818
1.60122
1.07136e-08
3.92413e-07
2.41083e-05
0.00027055
0.00151487
0.00712839
0.0236142
0.059239
0.315741
1.44485
1.21994e-08
1.37136e-06
3.72945e-05
0.000289793
0.00160316
0.00691861
-0.00807644
0.141153
-0.039038
1.376
7.61666e-07
1.28443e-05
6.01785e-06
-0.000125027
-0.000130662
0.00481293
-0.029831
0.14323
0.222192
1.54547
1.71688e-07
-1.87407e-05
-0.000285501
-0.00187818
-0.00664802
-0.0157957
-0.0919599
0.155599
0.278816
1.54822
-6.99828e-07
-4.70243e-05
-0.000489927
-0.00288987
-0.0105322
-0.0288309
-0.124929
0.157322
0.359925
1.54433
-1.44422e-06
-6.59535e-05
-0.000585624
-0.00333179
-0.0127549
-0.0383643
-0.137975
0.203779
0.44597
1.53305
-1.85424e-06
-6.96926e-05
-0.000541341
-0.00304201
-0.0122011
-0.0390882
-0.120757
0.231012
0.528633
1.5242
-1.80352e-06
-5.83442e-05
-0.000404701
-0.00233708
-0.00997616
-0.0332892
-0.0845872
0.168456
0.672894
1.48694
-1.21434e-06
-3.4744e-05
-0.000228483
-0.0014099
-0.00651848
-0.021884
-0.0346088
0.0460204
0.841932
1.42079
-8.41646e-07
-2.63591e-05
-0.000177636
-0.0011074
-0.00572549
-0.0236277
-0.0507028
-0.0963566
0.878571
1.42015
-1.73268e-08
-1.04747e-06
-3.28443e-05
-0.000293687
-0.0017071
-0.00799801
-0.0176752
-0.0958538
0.370148
1.6957
-1.10838e-08
-1.63063e-06
-3.57949e-05
-0.000236738
-0.00137195
-0.00697334
-0.0293105
-0.00793314
0.424466
1.3396
-4.36354e-07
-6.62553e-06
-8.84205e-06
0.000403144
0.002376
0.00544233
-0.0742402
0.351635
0.473111
1.51754
2.84105e-07
2.59675e-05
0.000376498
0.00256313
0.00967069
0.024266
-0.00154186
0.409028
0.410451
1.55946
1.14844e-06
5.4739e-05
0.000598747
0.00354335
0.0131383
0.0340223
0.0128819
0.332277
0.421231
1.58514
1.79163e-06
7.10731e-05
0.000668623
0.00376212
0.014339
0.0387297
0.00265765
0.209161
0.534423
1.58598
2.01383e-06
7.03545e-05
0.000584236
0.0031863
0.0124945
0.0342024
-0.0262679
0.13487
0.717963
1.52567
1.79716e-06
5.67576e-05
0.00042408
0.00231955
0.00970161
0.0275627
-0.0326394
0.139194
0.894549
1.42417
1.16081e-06
3.42782e-05
0.000243758
0.00138729
0.00637149
0.0198916