/*--------------------------------*- C++ -*----------------------------------*\
| =========                 |                                                 |
| \\      /  F ield         | OpenFOAM: The Open Source CFD Toolbox           |
|  \\    /   O peration     | Version:  1.7.x                                 |
|   \\  /    A nd           | Web:      www.OpenFOAM.com                      |
|    \\/     M anipulation  |                                                 |
\*---------------------------------------------------------------------------*/
FoamFile
{
    version     2.0;
    format      ascii;
    class       volScalarField;
    location    "0.4";
    object      conc;
}
// * * * * * * * * * * * * * * * * * * * * * * * * * * * * * * * * * * * * * //

dimensions      [0 -3 0 0 1 0 0];

internalField   nonuniform List<scalar> 
8000
(
1.48672e-07
-4.23825e-07
1.67753e-06
3.11096e-06
0.000125427
0.000387904
0.000217718
-0.000125824
7.55432e-05
-1.20421e-05
-2.20194e-06
6.88792e-06
-2.98774e-05
-4.19408e-05
-0.00235406
-0.00721613
-0.00395688
0.00186639
-0.00113943
0.000182586
-5.26658e-06
1.40406e-05
-5.74361e-05
-4.36175e-05
-0.00415302
-0.0128916
-0.00716638
0.00246198
-0.0021812
0.000480692
-5.03608e-06
1.29981e-05
-5.62079e-05
-6.16158e-05
-0.00425053
-0.0127685
-0.00678747
0.0022221
-0.00213582
0.000475541
-4.71391e-06
1.20181e-05
-5.43752e-05
-7.40362e-05
-0.00422746
-0.0124686
-0.00646319
0.00217914
-0.00204704
0.000449446
-4.98587e-06
1.28013e-05
-5.69102e-05
-7.4371e-05
-0.00434142
-0.012867
-0.00668554
0.00238838
-0.00213676
0.000474245
-5.93604e-06
1.55435e-05
-6.40303e-05
-6.15359e-05
-0.00458048
-0.0139725
-0.00749574
0.00281893
-0.00241202
0.000555203
-7.06115e-06
1.87962e-05
-7.17325e-05
-4.33606e-05
-0.004736
-0.0151375
-0.00864857
0.00338723
-0.00264876
0.000618025
-4.09082e-06
1.2344e-05
-4.90683e-05
-4.76173e-05
-0.00342962
-0.0109373
-0.00620027
0.0032667
-0.00174511
0.000294323
2.52864e-07
-6.9353e-07
2.48895e-06
2.87797e-06
0.000165045
0.000533832
0.000314765
-0.000182815
0.000107238
-1.82367e-05
-5.41395e-07
1.38415e-06
-5.6247e-06
-9.2637e-06
-0.00040813
-0.00124633
-0.00069714
0.000343885
-0.000247641
4.29821e-05
7.9395e-06
-2.23767e-05
9.80965e-05
0.000105086
0.00753787
0.0228444
0.0124847
-0.00481275
0.00373487
-0.000637644
1.90417e-05
-4.588e-05
0.000190591
8.38125e-05
0.013463
0.041283
0.0230707
-0.00513423
0.00766799
-0.00183682
1.80954e-05
-4.23203e-05
0.000186404
0.000140426
0.0138221
0.0408915
0.0216225
-0.0044922
0.00764983
-0.00184114
1.68691e-05
-3.90743e-05
0.000179984
0.000179937
0.0137228
0.039816
0.0203713
-0.0046099
0.00727369
-0.00172509
1.79099e-05
-4.20275e-05
0.000188548
0.000177012
0.014021
0.0409303
0.0209484
-0.00535598
0.00749003
-0.00180591
2.15203e-05
-5.17569e-05
0.000212386
0.000129627
0.0146493
0.0441855
0.0234433
-0.00663613
0.00830401
-0.00209655
2.57659e-05
-6.27131e-05
0.000236445
7.04832e-05
0.0148814
0.0473396
0.0269935
-0.00837875
0.00884695
-0.00228242
1.49734e-05
-4.11258e-05
0.000161271
0.000105154
0.0107006
0.0339402
0.0188768
-0.0093753
0.00566331
-0.0010311
-9.26275e-07
2.30401e-06
-8.32167e-06
-7.62157e-06
-0.000522119
-0.00167585
-0.000972503
0.000527678
-0.000346567
6.47318e-05
1.41742e-06
-3.06079e-06
1.35632e-05
2.13319e-05
0.000933089
0.00281969
0.00162263
-0.00058075
0.000570052
-0.00010913
-2.02485e-05
4.97646e-05
-0.000241846
-0.000230808
-0.0180136
-0.0539506
-0.0300686
0.0072548
-0.00831754
0.00152431
-4.83225e-05
0.000103449
-0.00047439
-0.000166935
-0.0324543
-0.0982128
-0.056722
0.0023556
-0.0187532
0.00491878
-4.55659e-05
9.53353e-05
-0.000465903
-0.000307727
-0.0334497
-0.0972946
-0.0525329
0.00132304
-0.0192877
0.0050258
-4.23764e-05
8.8225e-05
-0.000450602
-0.000403486
-0.0331351
-0.0944428
-0.0489078
0.00255948
-0.0181869
0.00466123
-4.53615e-05
9.66244e-05
-0.000472725
-0.000389036
-0.0335902
-0.0965635
-0.0499525
0.00460148
-0.018332
0.00481839
-5.52209e-05
0.000121418
-0.000530829
-0.000265196
-0.0345492
-0.103255
-0.0557246
0.00725406
-0.0197159
0.00551065
-6.65723e-05
0.000146642
-0.00058112
-0.000128525
-0.0341189
-0.108662
-0.0638194
0.0110387
-0.0200206
0.00581393
-3.89931e-05
9.52007e-05
-0.000394661
-0.0002148
-0.024411
-0.0774437
-0.0432618
0.01799
-0.0122515
0.00246703
2.44528e-06
-5.2625e-06
1.97575e-05
1.53274e-05
0.00112713
0.00361975
0.00213343
-0.000995664
0.000772082
-0.000162606
-3.78161e-06
6.21168e-06
-3.07072e-05
-4.38221e-05
-0.00207971
-0.00621067
-0.0036639
0.000806647
-0.00133862
0.000285543
5.51887e-05
-0.000108096
0.000572388
0.000318618
0.0420537
0.124609
0.0704413
-0.00810115
0.0211273
-0.00413141
0.000129575
-0.000222429
0.00112183
-5.79402e-05
0.0761966
0.227775
0.135331
0.0182149
0.0518504
-0.0152611
0.000120411
-0.000202684
0.00110171
0.000239834
0.0788314
0.225701
0.123625
0.0195641
0.0549856
-0.0160596
0.000111799
-0.000188364
0.00106638
0.000452134
0.0778742
0.218476
0.113625
0.0138968
0.0515429
-0.0148025
0.000121365
-0.000212662
0.00112107
0.000391267
0.0781574
0.221979
0.115249
0.00800931
0.0507386
-0.0150728
0.000150584
-0.000275753
0.00125501
8.19339e-05
0.078785
0.234468
0.128166
0.002252
0.0526207
-0.0168638
0.000183502
-0.00033322
0.00134714
-0.000173581
0.0750074
0.241071
0.145919
-0.006557
0.0507569
-0.0170722
0.000108931
-0.000217353
0.000918032
0.000186863
0.0534442
0.170931
0.0957898
-0.0345546
0.0297862
-0.00669422
-6.5985e-06
1.12088e-05
-4.3687e-05
-2.31991e-05
-0.00232542
-0.00751633
-0.00450887
0.00174928
-0.00173091
0.000420326
9.28547e-06
-1.12703e-05
6.67439e-05
9.29375e-05
0.00434274
0.012865
0.00796877
-0.000469997
0.00300846
-0.00071634
-0.000126966
0.000201052
-0.00126733
-0.000492584
-0.0921544
-0.269555
-0.155769
-0.00525424
-0.0457864
0.00918249
-0.000292075
0.00042005
-0.00249327
0.000463793
-0.167364
-0.493115
-0.305662
-0.0998157
-0.121926
0.0389969
-0.000266574
0.000381705
-0.00245724
-0.000196751
-0.173729
-0.488641
-0.275746
-0.100251
-0.133626
0.0423346
-0.000248055
0.000360337
-0.00238721
-0.000651515
-0.170887
-0.471439
-0.250249
-0.0806158
-0.124705
0.0387769
-0.000275949
0.000426123
-0.00251606
-0.000481089
-0.16919
-0.475149
-0.252142
-0.064742
-0.119741
0.0387741
-0.000351568
0.000572579
-0.00279497
0.000194603
-0.166
-0.49384
-0.279417
-0.0530025
-0.119383
0.042239
-0.000432165
0.00068095
-0.00290088
0.000575988
-0.150217
-0.491797
-0.31512
-0.0335531
-0.108756
0.0408555
-0.000259149
0.000433679
-0.00196679
-0.000208841
-0.106701
-0.347066
-0.199045
0.0544424
-0.0603042
0.0148596
1.64879e-05
-2.22116e-05
9.18956e-05
3.52202e-05
0.00433086
0.0143184
0.00905878
-0.00255486
0.00362859
-0.00103473
-2.42548e-05
1.66883e-05
-0.000131787
-0.000145929
-0.0087459
-0.0257661
-0.0166938
-0.00186815
-0.00714021
0.00194581
0.000320993
-0.000345478
0.0026081
-0.000800653
0.190451
0.550327
0.320744
0.0593248
0.114688
-0.0250974
0.000698139
-0.000693433
0.00507208
-0.00454178
0.34469
1.00282
0.644369
0.347375
0.315638
-0.124065
0.000612927
-0.000613998
0.00498388
-0.00347734
0.358375
0.99275
0.572495
0.342606
0.353965
-0.139928
0.000573693
-0.000598962
0.00485253
-0.00260494
0.350151
0.953769
0.511768
0.282795
0.329546
-0.127937
0.000665966
-0.000772887
0.00513172
-0.00300484
0.34028
0.950954
0.511304
0.23992
0.308944
-0.125352
0.000883361
-0.00110113
0.00564968
-0.00420538
0.321963
0.966986
0.563417
0.213576
0.295992
-0.131983
0.00110294
-0.00128791
0.00560339
-0.00399474
0.27137
0.921514
0.627493
0.168321
0.256957
-0.120947
0.000681611
-0.000819232
0.00381338
-0.00147004
0.192863
0.64856
0.378794
-0.0787359
0.139566
-0.0403467
-4.42666e-05
3.8967e-05
-0.000172509
7.36674e-06
-0.0074042
-0.0256341
-0.0173032
0.00295853
-0.00799215
0.00276045
5.42899e-05
-1.77422e-05
0.000256175
0.000232262
0.0165779
0.0483541
0.0330902
0.0100966
0.0159385
-0.00486134
-0.00063137
0.000441698
-0.00505968
0.00382407
-0.373666
-1.05801
-0.614245
-0.212274
-0.239262
0.0518374
-0.00129408
0.000866402
-0.00973796
0.0123581
-0.671199
-1.91283
-1.27646
-0.961817
-0.670873
0.295287
-0.00106788
0.000744031
-0.00954488
0.01026
-0.697252
-1.88989
-1.11964
-0.944877
-0.769611
0.34552
-0.00101621
0.00079713
-0.00933864
0.00854428
-0.673997
-1.8043
-0.984891
-0.786472
-0.71542
0.315096
-0.00127736
0.00122344
-0.00991548
0.00924063
-0.638628
-1.77271
-0.974859
-0.679915
-0.65747
0.302293
-0.00180341
0.00190168
-0.0107483
0.010901
-0.575658
-1.75072
-1.06643
-0.621285
-0.609787
0.307545
-0.00227524
0.00212012
-0.00991453
0.00834401
-0.437421
-1.56617
-1.1658
-0.518659
-0.506913
0.266873
-0.00141655
0.00126279
-0.00668525
0.00374982
-0.31172
-1.09893
-0.661936
0.0815357
-0.266073
0.0825586
0.000103232
-6.39617e-05
0.00031577
-0.000113703
0.0108532
0.0407541
0.0306289
-0.000692817
0.0161571
-0.0066437
-0.000135122
-1.16646e-05
-0.000416939
-2.39348e-05
-0.0295312
-0.0865726
-0.0625371
-0.0332528
-0.0388916
0.0148105
0.00144515
-0.000416125
0.00922389
-0.0200257
0.692893
1.92224
1.07378
0.602522
0.592589
-0.15547
0.00249541
-0.000604827
0.0171904
-0.046284
1.22428
3.42395
2.32964
2.3774
1.53951
-0.970388
0.00175847
-0.000424557
0.0166517
-0.0439739
1.26547
3.36957
2.00949
2.31161
1.76497
-1.16496
0.0017598
-0.000741224
0.0163499
-0.0404531
1.20352
3.18711
1.7295
1.92473
1.63842
-1.06187
0.00262324
-0.00175646
0.0174532
-0.0402748
1.10096
3.0655
1.68485
1.66719
1.47836
-0.997393
0.00410322
-0.00311317
0.0185507
-0.0393268
0.927495
2.90421
1.81661
1.52457
1.3314
-0.978339
0.00527785
-0.00320452
0.0152839
-0.0250899
0.597545
2.35979
1.93844
1.30469
1.08442
-0.810804
0.00346436
-0.00178579
0.0102567
-0.0140524
0.431581
1.65554
1.01024
-0.0354133
0.601877
-0.239233
-0.000273392
7.15228e-05
-0.000463784
0.000576571
-0.0121933
-0.0561145
-0.0493879
-0.0082576
-0.0366271
0.0196426
0.00023741
0.000110207
0.000693824
-0.000683994
0.0495352
0.144366
0.109505
0.0872817
0.0821141
-0.034218
-0.00212615
-0.000572292
-0.0161483
0.0559369
-1.23176
-3.28361
-1.65656
-1.36784
-1.12516
0.305744
-0.00276474
-0.00175507
-0.0292508
0.114022
-2.13154
-5.75774
-3.93163
-5.19437
-2.78566
2.05689
-0.00103938
-0.00180341
-0.0280588
0.110074
-2.18104
-5.64202
-3.35583
-5.05532
-3.23085
2.55344
-0.00140805
-0.000692776
-0.0278128
0.101646
-2.02545
-5.26476
-2.81596
-4.19674
-3.00405
2.32663
-0.00361111
0.00159594
-0.0298925
0.0965894
-1.76524
-4.90956
-2.68362
-3.62465
-2.68143
2.14304
-0.00684847
0.00421221
-0.0308294
0.0849116
-1.35066
-4.37597
-2.83225
-3.29915
-2.37549
2.03357
-0.00884705
0.0036851
-0.020948
0.0399525
-0.645668
-3.01839
-2.91528
-2.84125
-1.89483
1.60021
-0.00571787
0.00138686
-0.0135081
0.024238
-0.484154
-2.10828
-1.28992
-0.121841
-1.0609
0.450449
0.000539069
-6.27761e-05
0.000696772
-0.00123871
0.00606845
0.0583688
0.0703332
0.0327629
0.0719584
-0.0422915
-0.000420877
-0.000412648
-0.000829857
0.00389727
-0.0744779
-0.220258
-0.173444
-0.208939
-0.192448
0.132681
0.00339619
0.003097
0.0284704
-0.169052
2.09085
5.30725
2.10682
3.03149
2.59211
-1.18881
-3.90316e-06
0.00686975
0.0498201
-0.311547
3.50711
9.07582
5.86815
10.3702
5.10678
-6.88446
-0.0049696
0.00602376
0.0475285
-0.306807
3.52673
8.82997
4.91873
9.9307
5.71764
-8.42447
-0.00264899
0.0028156
0.047607
-0.282338
3.1647
8.06978
3.94754
8.20033
5.33231
-7.69011
0.00459067
-0.00222514
0.0510747
-0.252854
2.57595
7.18233
3.60685
7.01706
4.72065
-6.98948
0.0138042
-0.00717948
0.0502484
-0.196995
1.70071
5.83558
3.69587
6.30069
4.13334
-6.47637
0.0179288
-0.00456972
0.0245795
-0.0605541
0.368608
2.91902
3.70783
5.52915
3.33811
-5.07036
0.0121175
-0.000503535
0.0150246
-0.0423401
0.340902
2.03723
1.12607
0.585347
2.24219
-1.57976
-0.00122799
-8.93658e-05
-0.000712496
0.00173836
0.0187684
-0.0130891
-0.0704195
-0.0918729
-0.163411
0.155951
4.54318e-05
0.000711862
0.000672287
-0.00755112
0.0567365
0.169411
0.136599
0.273253
0.213302
-0.0985858
0.000746733
-0.00746943
-0.0340895
0.287531
-2.14353
-4.89469
-0.714336
-3.59114
-2.53275
1.44669
0.0109261
-0.0133659
-0.0592408
0.489681
-3.38455
-8.07699
-4.38856
-12.1144
-4.33182
7.60111
0.0164749
-0.0103967
-0.0574359
0.477144
-3.27939
-7.75827
-3.58505
-11.5075
-4.82472
9.55809
0.0114547
-0.00496933
-0.0580357
0.424217
-2.76573
-6.80903
-2.60216
-9.42906
-4.56716
8.72999
0.000686577
0.0018665
-0.0606839
0.34833
-1.98154
-5.51953
-2.16648
-7.98752
-4.07287
7.7915
-0.0113051
0.00787038
-0.0548772
0.224497
-0.921558
-3.65309
-2.19356
-7.06801
-3.59402
7.00885
-0.0135774
0.00359211
-0.013037
-0.00714698
0.447405
-0.138978
-2.28709
-6.29501
-2.84351
5.21148
-0.00746392
-0.00107148
-0.00741378
0.0095263
0.169081
-0.119378
0.157915
-0.976144
-2.02293
1.65266
0.000940713
0.000165006
0.000419494
0.00216044
-0.0496241
-0.103649
-0.00141239
0.139817
0.19316
-0.102195
1.24477e-05
-0.000954316
0.00263941
-0.00337554
-0.039704
-0.0748577
-0.00458765
-0.162564
-0.401116
-0.0266303
-6.23388e-05
0.0248576
-0.065784
0.0610559
1.8282
3.60416
-0.612783
2.08367
5.08513
0.204353
-0.00263629
0.0454679
-0.110087
0.0876047
2.74728
5.25922
-0.152699
8.76057
14.2222
-0.101551
-0.00433295
0.0438217
-0.104773
0.0931115
2.58009
5.06747
-0.562877
7.58742
15.3784
-0.232354
-0.00394154
0.0354748
-0.0848329
0.0715361
2.10213
4.40529
-0.730246
5.76936
13.6668
-0.247901
-0.00291949
0.0236542
-0.0565784
0.0312392
1.42137
3.38102
-0.685265
4.74409
12.0278
-0.275451
-0.00167958
0.0080807
-0.0216927
-0.00990225
0.55606
1.94262
-0.342297
4.24608
10.7499
-0.310096
0.000148395
-0.00950883
0.0121424
-0.0150703
-0.434293
-0.620071
-0.103357
4.1719
8.61768
-0.25662
0.000959229
-0.00410759
0.0035909
-0.00971439
-0.165037
-0.0628412
-0.312798
-0.113023
3.29217
-0.0331264
-3.52944e-05
0.000403397
-0.000576634
0.00261158
0.0351366
0.111292
0.103543
-0.0268356
-0.323899
-0.0141573
-4.81548e-05
8.84626e-05
-0.000268748
-0.000591431
0.0617649
0.140907
-0.0161139
0.119421
0.505275
0.045062
0.00146171
0.000693941
0.011673
0.0232463
-3.00451
-6.48801
1.16042
-1.87797
-7.03965
-0.964397
0.00423891
0.00171952
0.00718978
0.095227
-4.36958
-9.75259
-0.552801
-9.82038
-16.7586
-2.64031
0.00522595
0.00529063
-0.00358559
0.110256
-4.03439
-9.21131
-0.0380375
-7.98582
-17.1848
-2.72378
0.00551147
0.0101683
-0.0197925
0.137162
-3.20669
-7.87544
0.364683
-5.70235
-15.101
-2.4313
0.00589108
0.0154679
-0.0393331
0.172363
-2.04281
-6.03036
0.310648
-4.43613
-13.1451
-2.14428
0.00616109
0.0189659
-0.0542717
0.177229
-0.582582
-3.53289
-0.446805
-3.87519
-11.6134
-1.90757
0.00472281
0.0126663
-0.0400571
0.070485
1.01918
0.862789
-0.908306
-4.34274
-9.48492
-1.60709
0.0023738
0.00634281
-0.0231632
0.0501321
0.528107
0.315344
0.268864
0.53591
-4.01739
-0.688185
-2.69634e-05
-0.000170311
0.00108235
-0.00347611
-0.0627572
-0.169143
-0.160246
-0.0489727
0.438474
0.0492851
-0.000221882
-0.00117869
0.00286666
-0.00691444
-0.0465594
-0.0561274
0.147817
0.0820504
-0.524863
-0.12089
0.00272022
0.0209282
-0.0769548
0.275014
3.36854
7.01667
-2.50431
0.047686
10.2422
1.4233
0.00622578
0.0398922
-0.118734
0.346746
4.45085
9.22909
-2.51725
7.94385
23.9808
3.95964
0.0062871
0.0380046
-0.103515
0.299274
3.878
8.45226
-2.71629
5.35629
23.9723
4.23608
0.00548782
0.0320249
-0.0764931
0.19162
2.83479
6.90191
-2.51688
2.98138
20.6899
3.75197
0.00444812
0.0248998
-0.0438548
0.0485918
1.45671
4.70196
-1.87922
2.01593
17.8491
3.30222
0.00298659
0.0151581
-0.00659801
-0.0851456
-0.151074
1.84777
-0.298825
2.07525
15.7145
2.96176
0.00111854
0.00217507
0.023959
-0.121436
-1.59234
-2.68679
0.319643
3.82872
12.8699
2.36738
0.000971429
0.00329125
0.0121226
-0.0800153
-0.963739
-1.39957
0.227102
-1.00414
4.83181
0.605143
-0.000124377
-0.000287712
-0.000181036
0.00610041
0.0688781
0.229314
0.263799
0.201995
-0.504732
0.00223033
4.72237e-06
-0.000396932
-0.000319483
0.00473253
0.0503017
0.0554466
-0.233652
-0.357806
1.46293
0.796548
-0.000286469
0.00259111
0.031431
-0.367131
-4.5886
-10.7378
2.57067
2.13628
-15.92
-5.15412
-0.000130212
0.00983466
0.0249164
-0.355029
-5.70243
-13.9041
1.77674
-7.17822
-31.7158
-8.55936
0.000436846
0.0141558
0.00368522
-0.237187
-4.81362
-12.4494
2.00847
-3.86781
-29.9387
-7.69978
0.00103509
0.0167369
-0.0174004
-0.060989
-3.3629
-10.0274
1.71642
-1.28256
-25.487
-6.3737
0.00170434
0.0187652
-0.0389026
0.14806
-1.5036
-6.87205
0.527231
-0.563581
-21.7804
-5.2134
0.00243839
0.019865
-0.058276
0.316446
0.599874
-2.90327
-2.19107
-1.36341
-19.0591
-4.29594
0.00267533
0.0163649
-0.0568898
0.298723
2.29249
3.05277
-2.58918
-4.7108
-16.269
-3.54737
0.00126781
0.00972161
-0.0379905
0.214304
1.56464
1.9851
-1.5626
0.41735
-6.99012
-2.03132
-8.66997e-05
-0.000672681
0.00104416
-0.00970368
-0.0773583
-0.243999
-0.318368
-0.402822
1.08456
0.532597
-5.26257e-05
-0.000345971
0.00096557
-0.00575769
-0.012223
0.0764413
0.316044
0.966904
-5.21973
2.63314
0.00062051
0.00452372
-0.0418492
0.672742
5.4177
13.9514
-1.06805
-4.64831
23.9978
-2.16882
0.00180587
0.0113443
-0.0520311
0.677071
5.93341
15.9257
-0.556533
7.48823
42.5726
11.417
0.00180343
0.0111926
-0.0352852
0.469581
4.61722
13.6442
-0.870523
3.12223
38.6389
12.6726
0.00152066
0.0102592
-0.0201887
0.181406
2.76422
10.363
-0.217868
0.293781
32.7918
11.5708
0.00124427
0.00974203
-0.00655464
-0.144682
0.502579
6.1292
1.79004
0.238535
27.9353
10.5132
0.000864492
0.0085237
0.00998237
-0.41139
-1.88396
0.894745
5.61936
2.5968
24.3876
9.55023
0.000316892
0.00551058
0.022738
-0.434663
-3.32975
-5.87932
4.61618
8.16516
21.6333
8.15288
0.000130498
0.00262561
0.01886
-0.335032
-2.54109
-4.49959
3.18149
2.50724
10.0114
2.01653
-2.37988e-05
-0.000358512
0.000502635
0.0108113
0.0791515
0.271115
0.349883
0.693027
-3.89428
-0.726095
1.36295e-05
9.93533e-06
0.00109035
-0.00347369
-0.0470283
-0.263449
-0.303587
-1.93016
13.6363
-22.2771
-0.000131789
0.000214354
-0.0131139
-0.880519
-6.62071
-19.6756
-4.84413
4.46882
-35.7338
37.1355
-0.000172911
0.00408472
-0.0355524
-0.715746
-6.51924
-20.9784
-5.70116
-12.8406
-59.8756
38.7237
4.65516e-05
0.00617281
-0.0426574
-0.374323
-4.70841
-17.4383
-4.80651
-7.12046
-52.9585
26.1149
0.000157017
0.0059821
-0.0379857
0.0347592
-2.36138
-12.6968
-5.36007
-3.74147
-45.2888
18.62
0.000201884
0.00524684
-0.0294548
0.462883
0.375384
-6.79106
-7.91896
-4.34218
-38.7947
12.9686
0.000288796
0.00473453
-0.0260359
0.772752
3.0789
0.338414
-12.1501
-8.4082
-34.0191
8.8457
0.000388452
0.00406256
-0.0249954
0.714187
4.25991
8.15347
-7.49871
-15.6505
-31.1451
7.44346
0.000123291
0.0017831
-0.0236027
0.585319
3.56936
7.411
-4.09238
-9.828
-15.6439
6.61166
-4.00687e-06
-0.00012696
-0.000395955
-0.0116034
-0.0560062
-0.210976
-0.327168
-1.1399
10.6918
-10.5161
-4.13555e-06
-0.000132912
-0.00176233
0.0220402
0.177825
0.681909
0.356337
1.21513
-5.01018
63.8252
9.31973e-05
0.002316
0.062164
1.15837
7.38746
25.5038
18.3533
5.04284
60.5925
-46.2725
-2.67375e-05
0.000838252
0.0657999
0.831444
6.13387
23.945
17.2114
28.4201
80.3437
-81.5854
-0.000116525
0.000405999
0.04293
0.3381
3.75838
18.8868
15.2732
19.992
72.5098
-65.1704
-6.47097e-05
0.00125424
0.00744678
-0.210528
0.932097
12.4221
15.1684
15.4827
64.4044
-50.8896
3.94203e-05
0.00217098
-0.0307016
-0.742388
-2.17196
4.42679
17.1825
16.1857
56.6471
-40.9779
0.000115197
0.00272964
-0.0520659
-1.08194
-4.93795
-4.94814
19.3566
21.0067
50.6358
-33.9269
5.86174e-05
0.00176404
-0.0434038
-0.935439
-5.43726
-12.9333
7.67162
27.6947
47.2629
-26.2298
-5.64574e-06
3.89473e-05
-0.023671
-0.818953
-4.85525
-12.6208
1.48883
22.9984
30.066
-2.22966
8.78009e-06
0.000125651
0.00220232
0.00534161
0.00111921
0.0579251
0.252248
0.625638
-9.58645
40.1294
2.71819e-05
0.00058358
0.00354484
-0.0622922
-0.385927
-1.49402
-1.47836
18.089
-58.5198
-125.026
-0.00059649
-0.0106729
-0.145892
-1.31966
-7.85764
-31.6352
-44.5651
-40.6282
-113.032
7.43515
-0.000578752
-0.0103649
-0.128562
-0.68739
-5.39809
-26.5377
-37.1462
-64.3508
-120.103
48.4221
-0.000402814
-0.00760578
-0.0591804
-0.0145399
-2.46677
-19.6145
-33.4142
-52.6779
-114.482
39.237
-0.000340757
-0.00525669
0.0212028
0.670047
0.797784
-10.9081
-31.0495
-45.9862
-108.552
30.2798
-0.000237445
-0.00217584
0.0947213
1.26717
4.10502
-0.427432
-29.669
-44.0752
-99.3388
26.7913
-0.000130031
0.000322381
0.129995
1.56346
6.64678
11.0748
-24.9734
-44.9534
-89.3639
26.5649
2.77649e-06
0.00207931
0.102894
1.2366
6.24228
17.777
-2.17566
-44.2053
-84.1809
19.7248
6.49335e-05
0.00246023
0.0776153
1.12142
5.84716
18.2676
8.64359
-41.9215
-69.3654
-19.2266
-1.23965e-05
-0.000241124
-0.00365046
0.0127229
0.121407
0.334569
-0.051565
6.21824
-16.8517
-87.5901
-4.01673e-05
-0.00116934
-0.00363598
0.126023
0.697794
2.97162
6.9422
-23.6343
96.4875
158.571
0.00129778
0.0224867
0.230527
1.39382
7.48812
34.3883
81.4594
118.181
89.6054
36.6908
0.00212951
0.0261849
0.129708
0.463485
3.69787
24.4394
61.3883
116.974
101.218
23.0343
0.00196451
0.0181512
-0.0093861
-0.385887
0.262914
15.5695
54.8345
106.704
129.469
23.0702
0.00129032
0.00665702
-0.145249
-1.19224
-3.2956
4.64957
47.4835
95.0683
148.134
23.594
0.0003614
-0.00564707
-0.252818
-1.8041
-6.50118
-7.88432
37.6725
82.6924
161.119
28.8967
-0.000419462
-0.0139875
-0.286713
-1.99095
-8.40922
-20.1426
19.6617
68.5107
166.975
47.2631
-0.000679614
-0.0144752
-0.211849
-1.4556
-6.9011
-23.1252
-14.8915
48.0203
158.465
89.2982
-0.000363407
-0.0100411
-0.176256
-1.35107
-6.55628
-23.6825
-30.3809
43.4506
123.618
163.328
1.34463e-05
0.000538751
0.00632536
-0.0511346
-0.333017
-1.19337
-0.493367
3.00533
55.9436
281.165
-5.94071e-06
0.00103945
-0.00940264
-0.22359
-1.10988
-4.8593
-13.7985
-49.4041
39.1565
154.996
-0.000553353
-0.0358284
-0.29173
-1.23908
-6.19182
-30.9797
-120.022
-160.14
98.2774
299.311
-0.00138519
-0.0386865
-0.0574645
0.0334901
-1.42512
-17.168
-84.0399
-126.215
122.518
341.462
-0.00135215
-0.019053
0.161082
1.04766
2.3287
-6.50048
-72.7801
-117.44
105.67
413.162
-0.000873446
0.00618908
0.349929
1.92647
5.90864
6.06327
-55.7411
-98.1694
78.3832
535.64
-0.000227575
0.0295207
0.467752
2.45576
8.5751
18.9082
-31.0857
-70.2218
48.667
698.16
0.000310282
0.042321
0.462232
2.43589
9.4433
28.7986
4.23639
-38.2715
29.2584
882.457
0.000464671
0.035154
0.309545
1.65877
6.91615
25.5821
42.5386
-2.61235
27.1116
1047.12
0.000142633
0.0224615
0.284605
1.52828
6.56477
25.5551
57.7753
18.2237
24.6329
1089.56
4.37148e-06
-0.000543204
-0.0026971
0.124915
0.652277
2.70404
5.45312
-32.3554
23.5131
798.708
4.66585e-06
9.57044e-05
0.0301028
0.29319
1.69007
8.54481
37.53
46.1833
-65.4423
693.48
0.000684819
0.0283795
0.117688
0.615197
4.64445
28.4098
158.808
-138.789
-33.0445
1022.2
0.00100414
0.0123566
-0.112102
-0.71335
-1.06774
9.96394
108.02
-184.748
34.4972
1043.8
0.000573723
-0.0116307
-0.282851
-1.69714
-5.20486
-3.08622
87.1331
-197.608
58.0322
1100.68
-5.45789e-05
-0.0339789
-0.407542
-2.42606
-8.75951
-17.1629
51.8336
-192.474
98.0966
1188.52
-0.000641878
-0.0487679
-0.439506
-2.65278
-10.7023
-29.0635
5.93389
-170.844
154.47
1290.5
-0.000964268
-0.0499825
-0.362826
-2.3208
-10.4537
-35.3286
-43.9103
-142.666
212.228
1400.43
-0.000798948
-0.0339778
-0.210135
-1.45465
-7.14028
-27.798
-70.5979
-117.422
247.282
1505.04
-0.000392136
-0.0252584
-0.194098
-1.28196
-6.6535
-27.9393
-75.7851
-132.817
198.269
1563.77
-6.53769e-06
0.000150044
-0.0119171
-0.198092
-1.08889
-4.87571
-13.8768
-25.4061
-9.91624
1384.73
-8.85636e-06
-0.000965938
-0.0382696
-0.33149
-2.00179
-11.2529
-54.1025
-23.0056
25.4086
1090.96
-0.000960812
-0.0273827
-0.0955634
-0.301414
-1.84679
-15.463
-73.2938
92.5444
98.7392
1340.56
-0.00104163
-0.00690782
0.129045
1.17914
4.19971
4.55148
-27.1262
181.34
78.3083
1391.44
-0.000351782
0.0208345
0.331058
2.21918
8.2263
18.4382
6.90124
184.936
72.4801
1448.97
0.000466171
0.0455402
0.473602
2.86994
11.1466
31.4258
50.737
129.471
105.664
1542.11
0.0011356
0.0596277
0.503133
2.89656
11.7713
38.6156
90.2157
34.9582
224.005
1613.86
0.00143107
0.0584365
0.42482
2.41308
10.2475
38.0897
112.204
-31.5691
389.962
1634.7
0.00113851
0.0397078
0.264475
1.52176
6.58951
25.7647
90.9081
-33.0906
509.808
1620.55
0.00067582
0.0292103
0.210504
1.27965
5.98069
25.8337
81.9162
18.2568
483.818
1601.22
1.07136e-05
0.000392413
0.0241083
0.27055
1.51487
7.12839
23.6142
59.239
315.741
1444.85
1.21994e-05
0.00137136
0.0372945
0.289793
1.60316
6.91861
-8.07644
141.153
-39.038
1376
0.000761666
0.0128443
0.00601785
-0.125027
-0.130662
4.81293
-29.831
143.23
222.192
1545.47
0.000171688
-0.0187407
-0.285501
-1.87818
-6.64802
-15.7957
-91.9599
155.599
278.816
1548.22
-0.000699828
-0.0470243
-0.489927
-2.88987
-10.5322
-28.8309
-124.929
157.322
359.925
1544.33
-0.00144422
-0.0659535
-0.585624
-3.33179
-12.7549
-38.3643
-137.975
203.779
445.97
1533.05
-0.00185424
-0.0696926
-0.541341
-3.04201
-12.2011
-39.0882
-120.757
231.012
528.633
1524.2
-0.00180352
-0.0583442
-0.404701
-2.33708
-9.97616
-33.2892
-84.5872
168.456
672.894
1486.94
-0.00121434
-0.034744
-0.228483
-1.4099
-6.51848
-21.884
-34.6088
46.0204
841.932
1420.79
-0.000841646
-0.0263591
-0.177636
-1.1074
-5.72549
-23.6277
-50.7028
-96.3566
878.571
1420.15
-1.73268e-05
-0.00104747
-0.0328443
-0.293687
-1.7071
-7.99801
-17.6752
-95.8538
370.148
1695.7
-1.10838e-05
-0.00163063
-0.0357949
-0.236738
-1.37195
-6.97334
-29.3105
-7.93314
424.466
1339.6
-0.000436354
-0.00662553
-0.00884205
0.403144
2.376
5.44233
-74.2402
351.635
473.111
1517.54
0.000284105
0.0259675
0.376498
2.56313
9.67069
24.266
-1.54186
409.028
410.451
1559.46
0.00114844
0.054739
0.598747
3.54335
13.1383
34.0223
12.8819
332.277
421.231
1585.14
0.00179163
0.0710731
0.668623
3.76212
14.339
38.7297
2.65765
209.161
534.423
1585.98
0.00201383
0.0703545
0.584236
3.1863
12.4945
34.2024
-26.2679
134.87
717.963
1525.67
0.00179716
0.0567576
0.42408
2.31955
9.70161
27.5627
-32.6394
139.194
894.549
1424.17
0.00116081
0.0342782
0.243758
1.38729
6.37149
19.8916
-12.4338
159.892
1042.24
1310.81
0.000812125
0.0236321
0.164358
0.930435
5.15591
22.6102
52.0311
155.106
1068.36
1250.37
2.14076e-05
0.00150859
0.030698
0.241483
1.54958
7.63399
11.7951
91.0918
694.134
1352.34
8.93388e-06
0.0015188
0.0127118
-4.53145e-05
-0.0210799
-0.768526
-11.7335
115.759
364.259
1394.54
0.000154037
0.0030946
-0.0679941
-0.919429
-4.03033
-20.2319
-55.244
429.581
547.598
1551.53
-0.000845987
-0.0472139
-0.61402
-3.54301
-12.5797
-36.7385
-5.87201
546.247
597.506
1570.32
-0.00176942
-0.0781357
-0.808797
-4.35673
-15.5908
-42.9066
-12.6178
590.051
724.902
1496.99
-0.00225916
-0.0882218
-0.794794
-4.20597
-15.692
-42.1418
-9.93361
604.408
859.012
1388.89
-0.00222467
-0.0782626
-0.616491
-3.24448
-12.6882
-32.5317
-2.87014
554.564
974.827
1279.22
-0.00178769
-0.0569299
-0.385144
-2.13298
-9.46947
-25.8878
-26.6068
463.906
1097.31
1166.23
-0.00105228
-0.0312519
-0.189744
-1.19543
-6.32914
-20.0791
-61.7342
341.771
1197.03
1078.51
-0.000681072
-0.0196124
-0.0932649
-0.561276
-4.26198
-20.7982
-56.3847
106.728
1205.16
1086.93
-2.07482e-05
-0.0013945
-0.0193687
-0.165655
-1.20075
-6.65994
-16.3898
-49.905
700.584
1513.8
1.43265e-08
0.00128639
0.0244283
0.162918
1.33877
8.25148
37.7461
119.044
840.174
1308.13
-0.000270437
0.00385098
0.2573
1.87838
5.94887
11.1904
155.314
604.636
751.902
1455.09
0.00126327
0.071339
0.813407
4.634
15.9129
32.9424
234.756
640.514
552.182
1538.78
0.00222745
0.0978226
0.919414
5.09602
18.0208
33.888
162.082
585.622
532.386
1555.18
0.00254478
0.0979104
0.806548
4.45447
16.6854
28.0763
73.0982
511.416
652.485
1512.68
0.00228491
0.0779414
0.552423
3.08602
12.5085
17.4854
-6.56383
458.559
862.213
1370.82
0.00168999
0.0503171
0.294599
1.78509
8.77714
16.381
-31.5071
452.456
1051.11
1199.78
0.000959305
0.0257851
0.133763
0.960399
5.90795
15.694
-44.5713
485.076
1213.58
1046.17
0.000577952
0.0117764
0.00971609
0.198401
2.98004
18.135
-15.0901
456.34
1333.65
903.43
1.9312e-05
0.000873868
0.0148164
0.1569
0.940237
3.59615
-16.1766
152.285
1083.37
992.25
1.58443e-05
0.00263713
0.0542646
0.423675
2.48219
15.0918
75.7365
247.489
776.022
1192.05
-0.000345869
-0.0365329
-0.533451
-3.46762
-13.498
6.04151
375.417
628.806
809.604
1380.4
-0.00241388
-0.102129
-0.968745
-5.76816
-21.6081
14.6451
539.217
758.914
870.134
1492.45
-0.00317287
-0.115651
-0.971034
-5.67582
-22.0333
4.81895
484.229
827.061
994.248
1365.67
-0.00308826
-0.101156
-0.762379
-4.44433
-18.7358
-5.37306
392.731
879.343
1103.82
1167.11
-0.00242535
-0.0698626
-0.454733
-2.69341
-13.0198
-11.8366
277.713
881.747
1171.26
1045.05
-0.00154252
-0.0374126
-0.202656
-1.32305
-8.35029
-21.6263
140.001
825.394
1241.18
972.892
-0.000768386
-0.0158716
-0.0810822
-0.685803
-5.70078
-25.6137
26.7011
706.514
1258.6
901.884
-0.00029295
-0.000447938
0.0327267
0.0451456
-1.89891
-20.4282
-86.8729
426.895
1201.27
921.086
-1.75639e-05
-0.00104712
-0.0211181
-0.17585
-1.2073
-7.38189
-33.0883
38.8942
930.402
1147.32
3.20804e-05
0.00363108
0.0823664
0.847612
7.07122
41.6074
126.266
376.356
1096.88
1201.55
0.00128946
0.051599
0.555527
4.15988
26.8714
150.414
536.211
735.876
873.884
1317.26
0.00276322
0.0981713
0.95504
6.25662
34.6992
183.054
656.728
721.954
592.102
1300.08
0.00300229
0.100125
0.898281
5.58169
30.0298
151.444
596.205
724.335
532.139
1316.5
0.00248995
0.0778637
0.642613
3.83758
21.169
108.996
504.589
719.786
594.672
1390.05
0.00160986
0.0459815
0.340274
1.94032
11.6361
66.5312
390.723
720.576
769.4
1298.69
0.000788503
0.0204414
0.136415
0.8011
6.03018
39.802
284.991
750.889
955.24
964.281
0.000285773
0.00771292
0.0562625
0.45224
4.12895
24.4838
177.761
803.979
1147.01
648.407
-8.04503e-05
-0.00340051
-0.0398568
-0.195108
0.791365
11.5669
37.2983
778.214
1391.32
550.924
1.06542e-06
0.000276567
6.46618e-05
-0.0303782
-0.135824
-0.175762
-16.6822
227.673
1386.12
563.363
3.36577e-05
0.0041084
0.0993705
0.975799
6.96754
43.8975
144.291
424.114
1085.76
966.092
0.000484432
-0.0130027
-0.43085
-2.30734
6.58246
205.423
759.223
728.815
1004.1
1307.41
-0.00126195
-0.0826269
-0.983605
-4.80179
1.69718
279.357
966.411
788.777
1042.95
1720.97
-0.00173641
-0.0885489
-0.897945
-4.18428
1.2119
244.36
888.724
856.803
1130.55
1606.59
-0.0015324
-0.0693591
-0.618116
-2.74461
1.30703
188.394
767.419
946.08
1236.8
1137.95
-0.00107389
-0.04317
-0.320957
-1.40755
0.46306
125.606
626.647
1025.03
1246.38
336.123
-0.00064969
-0.0218509
-0.114072
-0.682709
-2.56578
55.9158
455.78
1043.92
1154.53
-283.14
-0.000357081
-0.00975096