/*--------------------------------*- C++ -*----------------------------------*\
| =========                 |                                                 |
| \\      /  F ield         | OpenFOAM: The Open Source CFD Toolbox           |
|  \\    /   O peration     | Version:  1.7.x                                 |
|   \\  /    A nd           | Web:      www.OpenFOAM.com                      |
|    \\/     M anipulation  |                                                 |
\*---------------------------------------------------------------------------*/
FoamFile
{
    version     2.0;
    format      ascii;
    class       surfaceScalarField;
    location    "0.4";
    object      phi;
}
// * * * * * * * * * * * * * * * * * * * * * * * * * * * * * * * * * * * * * //

dimensions      [0 3 -1 0 0 0 0];

internalField   nonuniform List<scalar> 
22300
(
0.000688459
0.000865463
0.0484461
0.000167167
0.000874472
0.0496468
-1.12495e-05
0.000776781
0.0494016
-4.69345e-06
0.00073146
0.049262
1.90278e-05
0.000756591
0.0492197
5.44021e-05
0.000766784
0.0491978
5.73964e-05
0.000799304
0.0491977
-0.000131791
0.000861501
0.0493277
-0.000659432
0.000899799
0.0496278
0.000812641
0.0485279
0.000781393
0.000456197
0.0496279
0.000212566
0.000494737
0.0509486
-5.919e-05
0.000399899
0.0506486
-3.86331e-05
0.000336279
0.0503746
6.8101e-05
0.000344451
0.0503054
0.000201795
0.000352845
0.0502803
0.000309479
0.000384908
0.0503067
0.000168789
0.000452246
0.0505499
-0.000440887
0.00049235
0.0510171
0.000421634
0.0499501
0.000836015
0.000242833
0.0493773
0.000247565
0.000286967
0.0507962
-6.91691e-05
0.000227621
0.050489
-4.54361e-05
0.000177092
0.0501355
7.74911e-05
0.000172875
0.0500487
0.000231261
0.000177404
0.0500217
0.000358448
0.000199351
0.0500584
0.00023602
0.000242633
0.050332
-0.000383288
0.000261626
0.05085
0.000217524
0.0498208
0.000843706
0.000108007
0.0492911
0.000241408
0.000132523
0.0507567
-8.27061e-05
0.00010866
0.0504431
-4.80052e-05
8.46791e-05
0.0500577
8.17947e-05
7.94966e-05
0.0499636
0.000242581
8.12371e-05
0.0499354
0.000375931
9.2074e-05
0.0499739
0.000257683
0.000110935
0.05025
-0.000367863
0.000115807
0.0507714
9.7155e-05
0.0497525
0.000841319
6.56916e-06
0.0492601
0.000229892
7.56681e-06
0.0507364
-9.39149e-05
4.8253e-06
0.0504276
-5.08488e-05
4.94221e-06
0.0500367
8.43114e-05
4.54776e-06
0.0499398
0.000250308
4.36841e-06
0.0499109
0.000388191
5.43872e-06
0.0499488
0.000270175
7.29231e-06
0.0502217
-0.000363609
9.6638e-06
0.0507399
5.96032e-06
0.0497276
0.000841888
-9.49499e-05
0.0492596
0.000229512
-0.000117558
0.0507375
-9.54099e-05
-9.96521e-05
0.0504294
-5.21797e-05
-7.56236e-05
0.0500373
8.33666e-05
-7.10608e-05
0.0499401
0.000249749
-7.31941e-05
0.0499112
0.000387912
-8.21873e-05
0.0499495
0.000270257
-9.74393e-05
0.0502224
-0.000362746
-9.74377e-05
0.0507401
-8.602e-05
0.0497292
0.000845994
-0.000230944
0.04929
0.000240793
-0.000273262
0.0507609
-8.68216e-05
-0.000220088
0.050448
-5.17378e-05
-0.000169491
0.0500588
7.91074e-05
-0.000165372
0.0499635
0.000240986
-0.000170138
0.0499351
0.000375228
-0.000190732
0.0499743
0.000258449
-0.000230946
0.0502503
-0.000364586
-0.000244994
0.0507706
-0.000207448
0.0497568
0.000841023
-0.000447477
0.0493755
0.00024845
-0.000484192
0.0508035
-7.47757e-05
-0.000393995
0.0504971
-5.0929e-05
-0.000329975
0.0501366
7.35701e-05
-0.000337789
0.0500479
0.000229174
-0.000345946
0.0500202
0.000358111
-0.000377058
0.0500574
0.000238527
-0.00044285
0.0503315
-0.000376902
-0.000479972
0.0508504
-0.00041429
0.0498299
0.000786508
-0.000861646
0.0496277
0.0002145
-0.000869059
0.0509569
-6.49903e-05
-0.00077282
0.0506583
-4.43291e-05
-0.000726865
0.0503762
6.55115e-05
-0.000752009
0.0503044
0.000202961
-0.000761633
0.0502782
0.000313463
-0.000793194
0.0503056
0.00017485
-0.000855539
0.0505513
-0.000433975
-0.00089454
0.0510234
-0.000812166
0.0499639
0.000687614
0.0484507
0.000163881
0.0496547
-1.6922e-05
0.049408
-8.61099e-06
0.0492648
1.80437e-05
0.0492213
5.75051e-05
0.0491989
6.51801e-05
0.0491991
-0.000122577
0.0493322
-0.000652126
0.049635
0.0485357
0.00114049
0.00114966
0.0461559
0.000804483
0.00108727
0.0488956
0.000461548
0.00121033
0.0485342
5.97547e-05
0.00134227
0.0483215
-0.000265568
0.00132834
0.0482167
-0.000585377
0.00132103
0.0481966
-0.000949954
0.00128853
0.0482738
-0.00128094
0.00118286
0.0484758
-0.00151428
0.00109737
0.0487638
0.00114306
0.0458706
0.00101039
0.000706968
0.0490602
0.00069545
0.000611195
0.0517396
0.000508274
0.000723847
0.0513223
0.000119137
0.000867983
0.051238
-0.000278478
0.000872617
0.0511588
-0.000692492
0.000866516
0.0511488
-0.00115683
0.000830799
0.0512288
-0.00157038
0.000724949
0.0514214
-0.00178871
0.000651766
0.051681
0.000699904
0.0486046
0.000874394
0.000396942
0.048813
0.00061653
0.000319353
0.0513459
0.000540376
0.00039121
0.0508978
0.000147269
0.000489887
0.0509067
-0.000269563
0.00050293
0.0508352
-0.000705256
0.000499394
0.0508245
-0.00118371
0.000472611
0.050895
-0.00160657
0.000404571
0.0510753
-0.00183782
0.000374709
0.0513584
0.000414511
0.0482684
0.000834348
0.000197854
0.0486559
0.00061548
0.000159969
0.051135
0.000569889
0.000188812
0.0506911
0.000159573
0.000230622
0.0507273
-0.000266891
0.000239217
0.0506538
-0.000710834
0.000236839
0.0506419
-0.00119633
0.000222574
0.0507095
-0.00162169
0.000194096
0.0508858
-0.00185282
0.00018831
0.0511889
0.000206185
0.048108
0.000830282
2.19451e-05
0.0486057
0.000627275
1.84854e-05
0.0510809
0.000587315
2.16699e-05
0.0506347
0.000164908
2.08515e-05
0.0506688
-0.000268066
1.9568e-05
0.0505924
-0.00071839
1.76011e-05
0.0505804
-0.00121075
1.41637e-05
0.0506495
-0.00163602
1.0173e-05
0.0508308
-0.00185943
5.17743e-06
0.0511465
9.60897e-06
0.0480647
0.000828391
-0.000157251
0.0486104
0.00062639
-0.000125725
0.0510837
0.000587954
-0.000147342
0.0506368
0.00016492
-0.000190495
0.0506717
-0.000268602
-0.000201691
0.0505948
-0.000719249
-0.000202821
0.0505823
-0.00121117
-0.00019455
0.0506501
-0.00163556
-0.000173328
0.0508303
-0.00186027
-0.000177593
0.0511476
-0.000187936
0.0480665
0.000826647
-0.000363525
0.0486696
0.000611874
-0.00029197
0.0511419
0.000571934
-0.000355581
0.0506962
0.000159681
-0.000455234
0.0507358
-0.000268571
-0.000470975
0.050661
-0.000713738
-0.000470067
0.0506475
-0.00119844
-0.000447148
0.0507116
-0.00162184
-0.000383963
0.0508843
-0.0018564
-0.000364712
0.0511923
-0.00040055
0.0481131
0.000859378
-0.000681733
0.0488343
0.000607934
-0.00059098
0.051354
0.000542902
-0.00069653
0.0509031
0.000147139
-0.000842124
0.0509193
-0.000272803
-0.00084943
0.0508463
-0.000711141
-0.000844946
0.0508334
-0.00118916
-0.00081059
0.0508989
-0.00160915
-0.000706349
0.0510739
-0.00184509
-0.000641159
0.0513628
-0.000689254
0.0482736
0.000995911
-0.00113443
0.0490845
0.000683676
-0.00107419
0.0517523
0.000509231
-0.00119432
0.0513305
0.000117728
-0.00132874
0.0512543
-0.000285063
-0.00131648
0.0511742
-0.000703924
-0.00131032
0.0511625
-0.00116772
-0.00127936
0.0512382
-0.00157587
-0.00117435
0.0514275
-0.0017956
-0.00108818
0.0516901
-0.00113052
0.0486096
0.0011367
0.0461796
0.000802294
0.0489149
0.000462177
0.0485538
5.61593e-05
0.0483421
-0.0002751
0.0482361
-0.00060093
0.0482144
-0.000970337
0.0482892
-0.0013017
0.0484892
-0.00152775
0.0487729
0.0458774
0.0012575
0.00142825
0.0434702
0.000709564
0.0015632
0.0478803
0.000201469
0.00148044
0.0475619
-4.88495e-05
0.00138712
0.0471847
-0.000233376
0.00137894
0.0470223
-0.000385206
0.00139312
0.0469553
-0.000536209
0.00142372
0.047001
-0.000844483
0.00151138
0.0472727
-0.00122864
0.00159337
0.0475546
0.00149868
0.0431433
0.00141699
0.00117578
0.0478957
0.0008555
0.00131301
0.0525513
0.000178191
0.00122548
0.0522546
-9.02122e-05
0.00111978
0.0517738
-0.000236429
0.00109615
0.0515878
-0.000332902
0.00111129
0.0515271
-0.000426112
0.00115247
0.0515933
-0.000699528
0.00125064
0.0519556
-0.00106912
0.00131161
0.0523324
0.00121817
0.047816
0.00154815
0.000772308
0.0476683
0.000948304
0.00086202
0.0523968
0.000146396
0.000804611
0.0521206
-0.000113828
0.000733659
0.051553
-0.000246279
0.000712647
0.0513511
-0.000328653
0.000721707
0.0512965
-0.000420533
0.000753013
0.0513864
-0.000702988
0.000819061
0.0517893
-0.00104481
0.000838206
0.0521736
0.000762026
0.0476797
0.00159848
0.000385465
0.0474442
0.000956419
0.000428262
0.0522108
0.000114376
0.000403823
0.0519339
-0.000126031
0.000372934
0.0513284
-0.000248004
0.000362027
0.0511264
-0.000323007
0.000365669
0.0510729
-0.000410981
0.000381093
0.0511694
-0.000699867
0.000408151
0.0515856
-0.00104267
0.000407114
0.0519628
0.000369002
0.0474584
0.00160215
3.69043e-05
0.0473522
0.000945673
4.28517e-05
0.0521228
9.82709e-05
3.80186e-05
0.0518479
-0.000131557
3.68015e-05
0.0512348
-0.000248002
3.59614e-05
0.0510349
-0.000318222
3.52518e-05
0.0509811
-0.000400146
3.56552e-05
0.0510769
-0.000690315
3.46145e-05
0.0514946
-0.0010398
3.52447e-05
0.0518678
2.89443e-05
0.047365
0.00160249
-0.00031362
0.0473585
0.000944392
-0.00034502
0.0521297
9.51956e-05
-0.000331017
0.0518551
-0.000133961
-0.0003027
0.0512404
-0.000250045
-0.000293419
0.0510403
-0.000320056
-0.00029865
0.0509862
-0.000402227
-0.000313961
0.0510819
-0.000693249
-0.00034354
0.0514994
-0.00104092
-0.000340356
0.0518709
-0.000312758
0.0473673
0.00160247
-0.000708317
0.0474618
0.000954585
-0.000788072
0.0522329
0.000105213
-0.000741484
0.0519561
-0.000133035
-0.000672908
0.0513442
-0.000253729
-0.000653266
0.0511415
-0.000327516
-0.000664458
0.0510871
-0.000415347
-0.000698082
0.0511836
-0.000706438
-0.000768633
0.0516005
-0.00104419
-0.000782903
0.0519726
-0.000708968
0.0474651
0.00155745
-0.00112594
0.0476945
0.00094832
-0.00125699
0.052432
0.000132276
-0.00117887
0.0521565
-0.000124779
-0.00107376
0.0515772
-0.000254607
-0.00105096
0.0513738
-0.000333789
-0.00106907
0.0513172
-0.000424585
-0.00111574
0.0514073
-0.000710755
-0.00122072
0.0518121
-0.00104593
-0.00127426
0.0521893
-0.00117333
0.047692
0.00142254
-0.00139994
0.0479359
0.000855563
-0.001534
0.0525963
0.000161891
-0.00145651
0.0523019
-0.00010389
-0.00136169
0.0518081
-0.00024666
-0.00135344
0.0516195
-0.000339088
-0.00136926
0.0515551
-0.000433064
-0.0014022
0.0516186
-0.000713751
-0.00149217
0.0519796
-0.00107587
-0.00157205
0.05235
-0.00147745
0.0478378
0.00125179
0.0435279
0.000700658
0.047932
0.000186845
0.0476111
-6.19396e-05
0.0472292
-0.000243961
0.0470647
-0.000391959
0.0469932
-0.000537803
0.0470328
-0.00084127
0.0473005
-0.00122259
0.0475822
0.0431774
0.00105363
0.00120133
0.0412152
0.000793968
0.00114612
0.0469938
0.000372811
0.00126996
0.0467131
-0.000117098
0.00138181
0.0462928
-0.000527311
0.0013888
0.0460437
-0.000913531
0.00139008
0.0459515
-0.00134142
0.00137018
0.0460587
-0.00168185
0.00128287
0.0463303
-0.00164345
0.00121049
0.0463057
0.00120465
0.0402952
0.00106686
0.000972925
0.0470572
0.00077899
0.000927487
0.0530578
0.000475335
0.00106423
0.0527639
-9.83781e-06
0.00118618
0.0524546
-0.000505273
0.00120455
0.0522674
-0.000978496
0.00120295
0.0521874
-0.00147979
0.00116614
0.0522986
-0.00190024
0.00105924
0.0525997
-0.00190039
0.00100837
0.0525347
0.00103018
0.04609
0.000940824
0.000668357
0.0470321
0.000677236
0.00063944
0.0529484
0.000497615
0.00072776
0.0526367
2.45824e-05
0.00080727
0.0524049
-0.000479504
0.000822617
0.0522372
-0.000950566
0.00082088
0.0521496
-0.00142828
0.000789955
0.0522403
-0.00183585
0.000715963
0.0525402
-0.00188224
0.000705158
0.0525232
0.000759872
0.0460678
0.000897841
0.000378974
0.0468358
0.000662208
0.000361107
0.0527248
0.000522367
0.000399225
0.0524023
3.59091e-05
0.000431111
0.052191
-0.000472838
0.000436683
0.052021
-0.000940664
0.000434041
0.0519276
-0.00141068
0.00041651
0.0520128
-0.00181122
0.000385079
0.052317
-0.00187341
0.000390598
0.0523395
0.000424977
0.0459199
0.000901466
6.68837e-05
0.0467628
0.000671913
5.66238e-05
0.0526568
0.000536333
6.23932e-05
0.0523204
3.91097e-05
6.10304e-05
0.0521021
-0.000473455
5.71825e-05
0.051927
-0.000943044
5.3007e-05
0.0518317
-0.00141522
4.60991e-05
0.0519195
-0.00181328
4.24685e-05
0.0522352
-0.00187613
3.79263e-05
0.0522833
4.34524e-05
0.0458704
0.000901236
-0.000252812
0.0467769
0.000671972
-0.000254428
0.05267
0.000536852
-0.000280152
0.0523327
3.77445e-05
-0.000313898
0.0521144
-0.000476561
-0.000326666
0.0519385
-0.000947668
-0.000331646
0.0518419
-0.0014201
-0.000326229
0.0519267
-0.00181605
-0.000301001
0.0522389
-0.00187845
-0.000316222
0.0522874
-0.000343189
0.0458755
0.000892151
-0.000560209
0.0468771
0.000659285
-0.000547967
0.0527593
0.000523763
-0.000624027
0.0524355
3.19622e-05
-0.000704595
0.0522267
-0.000482321
-0.000725464
0.0520546
-0.000955683
-0.000728712
0.0519575
-0.0014279
-0.000703609
0.0520332
-0.00182301
-0.000630463
0.0523251
-0.00188259
-0.000631732
0.0523477
-0.000693905
0.0459332
0.000928495
-0.000891296
0.0470971
0.000670252
-0.000856567
0.0529988
0.000500422
-0.000982916
0.0526853
1.91059e-05
-0.00110707
0.052461
-0.000494896
-0.00112839
0.0522908
-0.000976384
-0.00112781
0.0521978
-0.00145863
-0.00108788
0.0522738
-0.00185641
-0.000975597
0.052555
-0.00189611
-0.000939853
0.0525372
-0.000985773
0.0460877
0.00105954
-0.00115714
0.0471422
0.00077255
-0.00110401
0.0531307
0.000479312
-0.00122167
0.0528338
-1.58144e-05
-0.00133696
0.0525331
-0.000522395
-0.00134592
0.0523436
-0.00100617
-0.00134735
0.0522584
-0.00150616
-0.00132608
0.0523568
-0.00190821
-0.00123941
0.0526455
-0.00190309
-0.00117527
0.0525804
-0.00117629
0.0461252
0.0010542
0.0413165
0.000791824
0.0470904
0.000371705
0.0468095
-0.000125534
0.0463895
-0.000544751
0.046138
-0.00093992
0.046041
-0.00137146
0.0461383
-0.00170921
0.0463989
-0.00166291
0.0463606
0.0403382
0.000883369
0.0014671
0.0388647
0.000272818
0.00168048
0.0459239
-0.000233534
0.0015165
0.0457029
-0.000480831
0.00138375
0.0451563
-0.000601176
0.00135924
0.0448048
-0.000649837
0.00136867
0.0446315
-0.000673629
0.00140988
0.0446727
-0.000849234
0.00153423
0.0449716
-0.0011247
0.0016677
0.0449135
0.00153884
0.0376316
0.000916528
0.00138349
0.0462243
0.000388243
0.00160636
0.0536602
-0.000236532
0.00141924
0.053486
-0.000525058
0.00127566
0.0528512
-0.000632886
0.00124306
0.0524915
-0.000675999
0.0012604
0.0523388
-0.000736127
0.001339
0.0524296
-0.000914648
0.00150808
0.0528043
-0.00103464
0.00160427
0.0527181
0.00138221
0.045212
0.000959711
0.00100081
0.046455
0.000428685
0.00113268
0.0539531
-0.000297174
0.00101169
0.0537701
-0.000573658
0.00091691
0.0530402
-0.000655027
0.000896206
0.0526654
-0.000690471
0.000910968
0.0525345
-0.000779274
0.000975509
0.0526926
-0.00098818
0.00110595
0.0531512
-0.00103619
0.00116225
0.0530132
0.00095387
0.04546
0.000990097
0.000545829
0.0463006
0.000426687
0.000609235
0.0538116
-0.00034331
0.000554747
0.0536292
-0.000599217
0.000512154
0.0528517
-0.000658802
0.000503393
0.0524734
-0.000682569
0.00051062
0.0523517
-0.000774165
0.000542072
0.0525379
-0.000995314
0.000599825
0.0530443
-0.0010399
0.000618987
0.0529274
0.000509457
0.0453244
0.000978213
8.57415e-05
0.0462447
0.000404511
9.90482e-05
0.0537407
-0.000367814
8.98942e-05
0.0535575
-0.000610096
8.74897e-05
0.0527691
-0.000658195
8.70822e-05
0.0523914
-0.000672948
8.54757e-05
0.0522716
-0.000758719
8.52551e-05
0.0524621
-0.000981207
7.75292e-05
0.05298
-0.00103555
7.32392e-05
0.0528834
6.54323e-05
0.0452789
0.000973927
-0.000380854
0.0462696
0.000400393
-0.000418344
0.0537609
-0.000372074
-0.00038225
0.0535773
-0.00061284
-0.000344572
0.0527872
-0.000659604
-0.000336667
0.052409
-0.000672577
-0.000347409
0.0522878
-0.000756416
-0.000380601
0.0524763
-0.000977884
-0.000454316
0.0529922
-0.00103355
-0.000481005
0.0528973
-0.00038094
0.0452883
0.000984791
-0.000856853
0.0463683
0.000420118
-0.000964961
0.0538706
-0.000355019
-0.000860301
0.0536886
-0.000607384
-0.000769873
0.0529044
-0.000662192
-0.000751034
0.0525238
-0.000678903
-0.000771197
0.052398
-0.00076272
-0.000843607
0.05258
-0.000980838
-0.000994715
0.0530836
-0.00103105
-0.00105434
0.0529712
-0.000830349
0.0453516
0.000953677
-0.00127597
0.0465625
0.00041918
-0.00148329
0.0540517
-0.000316953
-0.00130737
0.0538685
-0.000587374
-0.0011636
0.0531251
-0.000660039
-0.00113409
0.0527465
-0.000682338
-0.0011604
0.0526093
-0.000757706
-0.00125695
0.0527625
-0.000966201
-0.00145124
0.0532201
-0.00102634
-0.00154041
0.0530834
-0.00127365
0.0455047
0.000896279
-0.00140252
0.0463725
0.000366539
-0.00161665
0.0537938
-0.000265816
-0.0014599
0.0536187
-0.000546643
-0.00132272
0.052973
-0.000647108
-0.00129898
0.0526089
-0.000682953
-0.00131409
0.0524479
-0.00074357
-0.00136568
0.0525262
-0.000933764
-0.00149669
0.0528811
-0.00105232
-0.00161954
0.052778
-0.00147412
0.0452734
0.000865165
0.0390488
0.000257631
0.0460812
-0.000254303
0.0458616
-0.000501459
0.0453139
-0.000622228
0.0449598
-0.000672353
0.044777
-0.00069985
0.0448001
-0.000868791
0.0450711
-0.0011265
0.0449988
0.0377376
0.000698691
0.00109388
0.0370722
0.000262302
0.0010194
0.0453409
-0.000267592
0.0012098
0.045023
-0.000683742
0.0013547
0.0442178
-0.000964177
0.00138224
0.043703
-0.00120025
0.00139852
0.043469
-0.00150494
0.00138348
0.0435939
-0.00183828
0.00129218
0.0440128
-0.00176626
0.00125873
0.0435827
0.00134208
0.0345233
0.000990855
0.000911315
0.045416
0.000508391
0.000882009
0.05428
-6.98893e-06
0.00110452
0.0541066
-0.000501675
0.00125749
0.0534431
-0.000908144
0.00127957
0.0530006
-0.00123264
0.00128056
0.0527813
-0.0015208
0.00121366
0.0528876
-0.00182936
0.00105075
0.0533543
-0.00192783
0.00104567
0.0530296
0.00128782
0.0433385
0.000974523
0.000681795
0.04571
0.000490177
0.000701171
0.0546183
5.27402e-05
0.000833817
0.0544782
-0.000450539
0.000918501
0.0538824
-0.000880029
0.000927224
0.0534472
-0.00120194
0.000921947
0.053215
-0.00143157
0.000866436
0.0532694
-0.00164118
0.000736364
0.0536752
-0.00177681
0.000730127
0.0534644
0.000974406
0.0439966
0.000917642
0.000448626
0.0456162
0.000456288
0.000454843
0.0545193
7.45028e-05
0.00050455
0.0543402
-0.000438113
0.000536129
0.0537467
-0.000872254
0.000536253
0.0532986
-0.00119049
0.000530479
0.0530614
-0.00139766
0.000501747
0.0531097
-0.00155779
0.000441957
0.0534988
-0.00169342
0.000440977
0.0533522
0.000560482
0.0440449
0.000915843
0.000142479
0.045635
0.000459356
0.000120121
0.0545319
8.25279e-05
0.000128802
0.0543101
-0.000438231
0.000127845
0.0536981
-0.000874023
0.000121541
0.0532419
-0.0011934
0.000114001
0.0530075
-0.00139796
9.94893e-05
0.0530689
-0.00153992
9.26692e-05
0.0534713
-0.00166605
8.53529e-05
0.0533652
8.28932e-05
0.0440904
0.000920864
-0.000177011
0.0456682
0.000460728
-0.000226699
0.0545679
8.15841e-05
-0.000258151
0.0543434
-0.00044266
-0.000290219
0.0537295
-0.000882892
-0.000302119
0.0532729
-0.00121
-0.000309978
0.0530389
-0.00142517
-0.000306939
0.0530979
-0.00157003
-0.000258268
0.053488
-0.001682
-0.000269183
0.0533638
-0.000397385
0.0440866
0.000922907
-0.00044399
0.0457124
0.000453335
-0.000503863
0.0546173
7.10571e-05
-0.000619446
0.0544322
-0.000450347
-0.000702884
0.0538385
-0.000898866
-0.000719392
0.0533896
-0.00124242
-0.000721987
0.0531536
-0.00148289
-0.000679803
0.0531933
-0.00165007
-0.000547592
0.0535401
-0.00174135
-0.000549041
0.0533424
-0.000826777
0.0440396
0.000984754
-0.000718804
0.0458526
0.000488831
-0.00072308
0.0547668
5.19933e-05
-0.000937875
0.0546237
-0.000466979
-0.00109041
0.0540316
-0.000920698
-0.00111458
0.0535954
-0.0012842
-0.00111285
0.0533637
-0.00156494
-0.00103702
0.0534005
-0.00177654
-0.00085379
0.0537379
-0.00184128
-0.000863602
0.0534627
-0.00117316
0.0440098
0.00102641
-0.000987593
0.0456148
0.000532238
-0.000918159
0.0544831
1.73923e-06
-0.00110389
0.0543152
-0.000513331
-0.00125796
0.0536556
-0.000946219
-0.00128493
0.0532122
-0.00130563
-0.00129657
0.0529911
-0.00162296
-0.00127162
0.0530781
-0.00190983
-0.00117688
0.0534911
-0.0019538
-0.00116638
0.0531248
-0.00127904
0.0434255
0.000711479
0.0373498
0.000270292
0.0456043
-0.000261304
0.0452893
-0.000693821
0.0444885
-0.00099292
0.043974
-0.00124769
0.0437352
-0.0015622
0.043843
-0.00188802
0.0442201
-0.00179822
0.0437426
0.0346603
9.34953e-05
0.00180113
0.0351776
-0.000853911
0.00210209
0.0441862
-0.00134382
0.00172141
0.0437915
-0.0014114
0.00149522
0.0427901
-0.00123122
0.00146203
0.0420608
-0.00097382
0.00148273
0.0417289
-0.000748772
0.00159578
0.041773
-0.000744833
0.00186454
0.0421443
-0.000936156
0.00212732
0.0416467
0.00181372
0.0317734
-9.09301e-05
0.00195712
0.0453509
-0.000968283
0.00213268
0.0551268
-0.00134357
0.00169667
0.0545066
-0.00137795
0.00146796
0.0535047
-0.00121762
0.00143784
0.0528645
-0.00101523
0.0014913
0.0525703
-0.000945407
0.00169733
0.0527162
-0.00105812
0.00210671
0.0532249
-0.00108055
0.00241252
0.0527669
0.00194009
0.0421315
-0.00031678
0.00142795
0.046556
-0.00110122
0.00147218
0.0560632
-0.00144343
0.00120685
0.0553102
-0.00140168
0.00107464
0.054234
-0.00118575
0.00106261
0.0536065
-0.000928145
0.00111066
0.053338
-0.000844304
0.00126704
0.0536158
-0.00100771
0.00157488
0.0543704
-0.00107147
0.00181518
0.0541255
0.00142472
0.0434405
-0.000360799
0.000754998
0.0466499
-0.00114112
0.000785046
0.0559868
-0.00151054
0.000684092
0.0552324
-0.00142291
0.000630068
0.0541036
-0.00116206
0.000624853
0.0534755
-0.000856212
0.000646959
0.0532193
-0.000743818
0.000713541
0.0535509
-0.000922993
0.000839572
0.0544133
-0.00102595
0.000937454
0.0543328
0.000753977
0.0436897
-0.000404296
0.000151995
0.0466423
-0.00119129
0.000178666
0.0559253
-0.00154991
0.0001688
0.055184
-0.00143289
0.000167835
0.0540433
-0.00114988
0.000168317
0.0534154
-0.000819217
0.000164496
0.0531593
-0.00068852
0.000160572
0.0534912
-0.000873847
0.000135759
0.0543604
-0.00100465
0.000110922
0.0543225
0.000107541
0.0437322
-0.000414781
-0.000453507
0.0466885
-0.0011963
-0.000433589
0.0559616
-0.0015514
-0.000354849
0.0552222
-0.00143395
-0.000305538
0.0540855
-0.00115071
-0.000299443
0.0534574
-0.000813846
-0.000328536
0.053195
-0.000670825
-0.000401484
0.053517
-0.000851023
-0.000570465
0.0543744
-0.000992951
-0.000712177
0.0543289
-0.000531573
0.0437328
-0.000381002
-0.00116402
0.0468039
-0.00114389
-0.00116107
0.0561076
-0.00151179
-0.000913165
0.0553584
-0.00142578
-0.000783982
0.0542309
-0.00116351
-0.000771473
0.0535993
-0.000835903
-0.000827837
0.0533252
-0.000684301
-0.0009938
0.053634
-0.000849578
-0.00134527
0.0544802
-0.000987537
-0.00161713
0.0543853
-0.00119849
0.043719
-0.000354118
-0.00176761
0.0468103
-0.00110875
-0.00190133
0.0562617
-0.00144722
-0.00146592
0.055515
-0.00140732
-0.00123552
0.0544432
-0.00118732
-0.0012095
0.0538134
-0.000893406
-0.00127905
0.053521
-0.000749154
-0.00151066
0.0537731
-0.000897843
-0.00196877
0.0545101
-0.00101744
-0.00228058
0.0542457
-0.00172512
0.043519
-0.00017125
-0.00170071
0.0457192
-0.00102144
-0.00199775
0.0554297
-0.00136526
-0.00160397
0.0547971
-0.00139301
-0.00136352
0.0538114
-0.00123345
-0.0013315
0.0531746
-0.00101219
-0.00136723
0.052858
-0.000920799
-0.00150491
0.052981
-0.00105064
-0.00179123
0.0534434
-0.00109882
-0.00203507
0.0529275
-0.00168102
0.0422826
6.99674e-05
0.0355791
-0.000873957
0.0445504
-0.00135744
0.0441688
-0.00143289
0.0432004
-0.00126981
0.0424794
-0.00103077
0.042129
-0.000844095
0.0421514
-0.00085869
0.0424434
-0.000988275
0.0418371
0.031991
-0.000524847
0.00109991
0.0346025
-0.00130233
0.000988711
0.043975
-0.00183862
0.00130281
0.043025
-0.0019302
0.0014711
0.0414106
-0.0017518
0.00149242
0.0403899
-0.001618
0.00148851
0.0401066
-0.00168094
0.00145433
0.0403816
-0.00183229
0.00134318
0.0409525
-0.00200784
0.00140109
0.0404212
0.00191982
0.0278458
0.000376552
0.000935556
0.0451387
-0.000430587
0.0010006
0.055922
-0.00126273
0.00139252
0.0552491
-0.00161674
0.00152691
0.0538029
-0.00164441
0.00152793
0.0528566
-0.00164656
0.00151059
0.0525504
-0.00164746
0.00139787
0.0527736
-0.00154928
0.00112979
0.0533401
-0.00182974
0.00111211
0.0533363
0.0019573
0.0402643
0.000594943
0.000820926
0.0460757
-0.000367695
0.000904751
0.0571217
-0.00121093
0.00111526
0.0564307
-0.00160067
0.00117422
0.0549764
-0.00166228
0.00116524
0.0540308
-0.00170771
0.00115508
0.053739
-0.00171703
0.00108743
0.0539356
-0.00150056
0.00087352
0.0544102
-0.00146144
0.000774746
0.0544237
0.00133289
0.0426034
0.000574841
0.000625141
0.0462709
-0.000461361
0.000629385
0.0572983
-0.00123912
0.000696101
0.0564293
-0.00161472
0.000721023
0.0549324
-0.00166931
0.000713526
0.0539818
-0.00171265
0.000708241
0.0537094
-0.0017009
0.000682489
0.053944
-0.00144149
0.000582578
0.0544448
-0.00124542
0.000519088
0.0543924
0.000715179
0.043062
0.000565897
0.000265617
0.0464359
-0.000483812
0.000224329
0.05738
-0.0012527
0.000235653
0.0564133
-0.00162323
0.00023909
0.0548958
-0.00166931
0.000231504
0.0539435
-0.00170586
0.000221901
0.0536822
-0.00168808
0.000199593
0.0539563
-0.00142938
0.000175843
0.0545084
-0.00117249
0.000133168
0.0544515
8.69549e-05
0.0431879
0.000577091
-0.000121258
0.0464983
-0.000478548
-0.000197833
0.0574394
-0.00125289
-0.000240954
0.0564731
-0.0016299
-0.000258094
0.0549597
-0.00168396
-0.000265596
0.0540085
-0.00173505
-0.000277708
0.0537457
-0.0017501
-0.000294381
0.054026
-0.00152697
-0.000245222
0.0545723
-0.00122672
-0.000260398
0.0544222
-0.000531009
0.043124
0.000598298
-0.000365466
0.0464498
-0.000458109
-0.000514991
0.0574812
-0.00124106
-0.000708062
0.0566085
-0.00163068
-0.000760745
0.0551232
-0.00171281
-0.000762169
0.054178
-0.00180293
-0.00076426
0.0539019
-0.00187963
-0.000734767
0.0541511
-0.00172411
-0.000552289
0.0546317
-0.00139582
-0.000498376
0.054295
-0.00110376
0.0428959
0.000645297
-0.000551807
0.0463514
-0.000354923
-0.00067357
0.0574205
-0.00121242
-0.00107149
0.0567359
-0.00162526
-0.00120422
0.0552996
-0.00173024
-0.00120536
0.0543616
-0.00185269
-0.00118368
0.0540629
-0.00199375
-0.00108569
0.0542651
-0.00192585
-0.000822889
0.0547128
-0.00166857
-0.000795992
0.0542861
-0.00170139
0.0424481
0.000477699
-0.000857233
0.0455469
-0.000348982
-0.000775374
0.0563582
-0.00123265
-0.00110473
0.055714
-0.00163656
-0.00128144
0.0542925
-0.00171999
-0.00129997
0.0533527
-0.00179399
-0.00128366
0.053032
-0.00191023
-0.00123427
0.0532458
-0.00192894
-0.00111371
0.0537529
-0.0019852
-0.00119125
0.053379
-0.00174421
0.0403402
-0.000457192
0.035179
-0.00122089
0.0445388
-0.00178574
0.0436289
-0.0019277
0.0420609
-0.001796
0.0410477
-0.00168912
0.0407384
-0.00177021
0.0409983
-0.00200599
0.0415655
-0.00209921
0.0407391
0.0281476
-0.00169421
0.00269211
0.0336046
-0.00311505
0.00278264
0.0426132
-0.00357996
0.00201338
0.0414765
-0.00313352
0.00170693
0.0392573
-0.00223055
0.00161873
0.0378682
-0.00130236
0.00166218
0.0375162
-0.000639764
0.00190079
0.0378182
-0.000455394
0.00246952
0.0382986
-0.000648054
0.00314548
0.0374684
0.00298159
0.0242161
-0.00221354
0.00290827
0.0471361
-0.00324661
0.00286646
0.0568713
-0.00331133
0.00205932
0.0552678
-0.00282327
0.00175526
0.0532665
-0.00204634
0.00171544
0.051983
-0.00127152
0.00182065
0.0516171
-0.000681691
0.00218892
0.0518957
-0.000782492
0.00300914
0.0529013
-0.00098043
0.00387329
0.0528064
0.00351962
0.0387459
-0.00274863
0.0020254
0.0497072
-0.00348409
0.00191525
0.0588084
-0.00334064
0.00149794
0.0568487
-0.00277731
0.00133196
0.0548364
-0.00191628
0.00131834
0.0535669
-0.000948016
0.00138961
0.0532018
1.57761e-05
0.00162141
0.0535393
-6.62314e-06
0.00217034
0.0552714
-0.000530239
0.00276024
0.0560604
0.00247576
0.043117
-0.00300509
0.0010215
0.0502799
-0.00366211
0.00100538
0.0588652
-0.00341482
0.000892261
0.0567877
-0.00280169
0.000838247
0.054813
-0.0018574
0.00082927
0.0535266
-0.000757309
0.000850663
0.0531483
0.000380183
0.000930722
0.0534972
0.000458117
0.00110698
0.0554303
-0.000318254
0.00131203
0.056617
0.00118071
0.0440388
-0.00311449
0.000220521
0.0503513
-0.0037603
0.000269231
0.058762
-0.00346008
0.000292519
0.0567129
-0.00282289
0.000305449
0.0547914
-0.00184721
0.000305411
0.0534917
-0.0006995
0.00028763
0.0530975
0.000485386
0.000265379
0.0534367
0.0005612
0.00020231
0.0553373
-0.000279774
0.000108454
0.0564961
9.07042e-05
0.0439982
-0.00312835
-0.000567498
0.0504147
-0.00376144
-0.000467197
0.058809
-0.00345286
-0.000324024
0.0567811
-0.00282574
-0.000244552
0.0548825
-0.00186317
-0.000231322
0.0535827
-0.000717429
-0.000281014
0.0531686
0.000477159
-0.000393568
0.0534903
0.000534971
-0.000666878
0.0553837
-0.000305804
-0.00104744
0.0564188
-0.000955189
0.0438641
-0.00304365
-0.00160985
0.0505358
-0.00366398
-0.00141996
0.0590543
-0.0033962
-0.000981066
0.0569977
-0.00280911
-0.000791992
0.0550835
-0.00190029
-0.000771341
0.0538092
-0.000800646
-0.000861046
0.0533823
0.000364756
-0.0010951
0.0536873
0.000385943
-0.00166781
0.0556115
-0.000389811
-0.00241798
0.0564413
-0.00214299
0.0436939
-0.00281362
-0.00259741
0.0501525
-0.00347419
-0.00248948
0.0591506
-0.00329969
-0.00163415
0.0572145
-0.00278105
-0.00130554
0.0552945
-0.00196941
-0.00126176
0.0540404
-0.000993809
-0.00138027
0.0536065
-8.9502e-06
-0.00172999
0.0539151
-4.59058e-05
-0.00259483
0.0556767
-0.000620533
-0.00351351
0.0559562
-0.00309893
0.0427835
-0.00230818
-0.00254068
0.0477984
-0.00325028
-0.00259339
0.0574042
-0.00326046
-0.00176914
0.0558592
-0.00281268
-0.00143464
0.0539738
-0.00208892
-0.00134887
0.052716
-0.00130647
-0.00141148
0.0522807
-0.00063525
-0.00167648
0.0525211
-0.000874195
-0.00227615
0.0536732
-0.00110876
-0.00291077
0.0530108
-0.00266402
0.0387965
-0.00172059
0.0343589
-0.00308451
0.0433093
-0.00352836
0.0423036
-0.00313082
0.0402287
-0.00229651
0.0388645
-0.00146405
0.0384945
-0.00089133
0.0387491
-0.000881064
0.0392791
-0.000976448
0.0379237
0.0245071
-0.00377342
0.00183424
0.0355438
-0.00491203
0.00116853
0.0425833
-0.0052662
0.00180386
0.0400269
-0.00399385
0.00184181
0.0361431
-0.00290918
0.00174772
0.0350358
-0.00186271
0.00175283
0.0347169
-0.000837062
0.00178813
0.0350045
-0.00115313
0.00185714
0.0367575
-0.0033353
0.00193867
0.0377119
0.00456938
0.0163114
-0.0024299
0.00192399
0.0494763
-0.00323394
0.00136372
0.0574801
-0.00429817
0.00181408
0.0563218
-0.00350829
0.00195373
0.0523647
-0.00266021
0.00191544
0.0509672
-0.00210667
0.00192263
0.0508938
-0.000987368
0.00192218
0.0506423
-0.00105577
0.00167468
0.0531521
-0.00169535
0.00167798
0.0537067
0.00389522
0.0377247
-0.00218649
0.00151916
0.0522985