/*--------------------------------*- C++ -*----------------------------------*\
| =========                 |                                                 |
| \\      /  F ield         | OpenFOAM: The Open Source CFD Toolbox           |
|  \\    /   O peration     | Version:  1.7.x                                 |
|   \\  /    A nd           | Web:      www.OpenFOAM.com                      |
|    \\/     M anipulation  |                                                 |
\*---------------------------------------------------------------------------*/
FoamFile
{
    version     2.0;
    format      ascii;
    class       volVectorField;
    location    "0.4";
    object      U;
}
// * * * * * * * * * * * * * * * * * * * * * * * * * * * * * * * * * * * * * //

dimensions      [0 1 -1 0 0 0 0];

internalField   nonuniform List<vector> 
8000
(
(4.71497 0.0436322 0.0472551)
(4.84416 0.0466744 0.0468066)
(4.89962 -0.00105567 0.0410361)
(4.90209 -0.0010467 0.0395937)
(4.9055 0.0011244 0.0417455)
(4.9056 0.00248748 0.042314)
(4.89976 0.00645414 0.0438458)
(4.8735 0.00298975 0.0466292)
(4.82554 -0.0403808 0.048117)
(4.74601 -0.0422252 0.0428045)
(4.7204 0.0475318 0.0721567)
(4.8813 0.0607183 0.0753219)
(5.00788 -0.00557122 0.063796)
(5.0036 -0.00843479 0.0565546)
(5.00395 0.00330627 0.0584645)
(5.00145 0.0102198 0.0596235)
(4.98852 0.0267817 0.0636697)
(4.92684 0.0327318 0.0720555)
(4.79687 -0.0117667 0.0775539)
(4.72741 -0.0344779 0.0682433)
(4.70707 0.0495472 0.0359493)
(4.87687 0.0698379 0.0411349)
(5.01998 -0.00732854 0.0325429)
(5.00521 -0.009935 0.0259888)
(5.00412 0.00391879 0.0259115)
(5.00133 0.011454 0.0265501)
(4.9899 0.0311196 0.0294545)
(4.92678 0.0385068 0.0354274)
(4.77402 -0.00576909 0.0384399)
(4.69186 -0.0316165 0.032079)
(4.70743 0.0502769 0.0173384)
(4.87939 0.0710972 0.0207344)
(5.02356 -0.0101323 0.0171228)
(5.00494 -0.0104613 0.0135917)
(5.00409 0.00413533 0.0128834)
(5.00132 0.012042 0.0131641)
(4.99061 0.0326689 0.0147399)
(4.92934 0.0406097 0.0174992)
(4.77372 -0.00401692 0.0181827)
(4.68454 -0.031022 0.0155416)
(4.70935 0.0504997 0.00557805)
(4.88191 0.0705892 0.00681688)
(5.0245 -0.0121769 0.00575119)
(5.00464 -0.0109778 0.00461906)
(5.0041 0.0042022 0.00427743)
(5.00133 0.0124801 0.00435853)
(4.99071 0.0337195 0.00496138)
(4.93012 0.0420525 0.00593907)
(4.77419 -0.00323122 0.00619594)
(4.6823 -0.0311305 0.00516517)
(4.70932 0.0505072 -0.00432868)
(4.88178 0.0706993 -0.00538833)
(5.02462 -0.0123737 -0.00485726)
(5.00474 -0.0111169 -0.00368724)
(5.00416 0.00411635 -0.00342115)
(5.00143 0.0123876 -0.00353261)
(4.99096 0.0336994 -0.00391891)
(4.9307 0.0420552 -0.00452578)
(4.77451 -0.00322146 -0.00431044)
(4.68165 -0.0310218 -0.00401569)
(4.70699 0.0503439 -0.0160195)
(4.87873 0.0715052 -0.0192349)
(5.02388 -0.010691 -0.0162687)
(5.00521 -0.010843 -0.0127397)
(5.00426 0.00389208 -0.0120739)
(5.00166 0.0117751 -0.0123988)
(4.99147 0.0326137 -0.0138181)
(4.9312 0.0406384 -0.0162216)
(4.7747 -0.00391059 -0.0163961)
(4.68256 -0.0306645 -0.014476)
(4.7061 0.0496685 -0.0348496)
(4.87572 0.0707324 -0.0398305)
(5.02053 -0.00806147 -0.0318413)
(5.00565 -0.0105017 -0.0252696)
(5.0044 0.00356761 -0.0251567)
(5.0019 0.0110575 -0.0257835)
(4.99138 0.0310955 -0.028536)
(4.92958 0.038638 -0.0341873)
(4.77475 -0.00545262 -0.0366829)
(4.68807 -0.0310062 -0.0309915)
(4.71897 0.0474999 -0.0715197)
(4.87998 0.0617839 -0.0744932)
(5.0085 -0.00624601 -0.0633194)
(5.00414 -0.00909497 -0.0560025)
(5.00418 0.00301659 -0.0578843)
(5.00174 0.0100401 -0.0590152)
(4.98923 0.0271883 -0.0630338)
(4.92761 0.033256 -0.0714796)
(4.79379 -0.011275 -0.0768782)
(4.72086 -0.0339268 -0.0679467)
(4.7136 0.0436325 -0.0472082)
(4.84358 0.0465986 -0.0467137)
(4.89991 -0.00175344 -0.040855)
(4.90225 -0.00161283 -0.0393456)
(4.90548 0.000918179 -0.0415157)
(4.90541 0.00252016 -0.0420175)
(4.8994 0.00699897 -0.0434165)
(4.87238 0.00403789 -0.0461528)
(4.82214 -0.0392847 -0.047882)
(4.74226 -0.0420582 -0.042975)
(4.77002 0.0682344 0.0763304)
(4.93288 0.110138 0.0725229)
(4.84601 0.0702811 0.0805287)
(4.83133 0.0268333 0.0879877)
(4.82123 -0.0127534 0.0863404)
(4.81904 -0.0395632 0.0859871)
(4.82705 -0.0761185 0.0844777)
(4.87169 -0.115196 0.0786058)
(4.9556 -0.160167 0.073507)
(4.72827 -0.0893507 0.077152)
(5.08634 0.0651951 0.106417)
(5.22115 0.0873952 0.0965041)
(5.05848 0.0716673 0.110433)
(5.04745 0.0384315 0.127771)
(5.04017 -0.0123178 0.127515)
(5.04119 -0.0434277 0.12655)
(5.06065 -0.0930086 0.122088)
(5.1546 -0.142425 0.108633)
(5.34689 -0.193905 0.0981473)
(5.10211 -0.104828 0.103058)
(5.07787 0.0596821 0.0503506)
(5.21009 0.0679294 0.0410595)
(5.03101 0.074833 0.0510595)
(5.02852 0.0434893 0.0639098)
(5.02208 -0.0117772 0.0650808)
(5.02301 -0.0428835 0.0646439)
(5.04102 -0.0961598 0.0613057)
(5.13689 -0.14644 0.0521984)
(5.35914 -0.198051 0.0472314)
(5.1364 -0.10872 0.0528055)
(5.06772 0.0569948 0.0279622)
(5.20188 0.0631469 0.0229982)
(5.02103 0.0795487 0.0273425)
(5.0211 0.0456587 0.0333202)
(5.01387 -0.0115747 0.0345069)
(5.01461 -0.0428527 0.0342999)
(5.03179 -0.0974834 0.0325034)
(5.12521 -0.148366 0.0286533)
(5.35091 -0.19951 0.0279978)
(5.13848 -0.109521 0.0302033)
(5.06181 0.0564307 0.0107563)
(5.19638 0.0629419 0.0090546)
(5.01776 0.0822621 0.0101505)
(5.0191 0.0467546 0.0118313)
(5.01127 -0.0115492 0.0122284)
(5.01195 -0.0432475 0.0120132)
(5.029 -0.0987246 0.0111763)
(5.12136 -0.150183 0.00978881)
(5.34724 -0.200652 0.00947961)
(5.13883 -0.10952 0.0103616)
(5.06183 0.0563895 -0.00661665)
(5.1966 0.062643 -0.00560176)
(5.01783 0.0823771 -0.00606998)
(5.01915 0.0468049 -0.00790772)
(5.01131 -0.0116043 -0.00855281)
(5.01189 -0.0433047 -0.00872402)
(5.02871 -0.0988403 -0.00856186)
(5.12048 -0.150208 -0.00794839)
(5.3465 -0.20056 -0.00860476)
(5.13979 -0.109703 -0.00862448)
(5.06833 0.0567223 -0.0244114)
(5.20299 0.0620337 -0.0201492)
(5.02127 0.0799131 -0.0236845)
(5.02122 0.0458165 -0.0296853)
(5.01393 -0.0117453 -0.0311315)
(5.01428 -0.0430304 -0.031237)
(5.03062 -0.0978848 -0.0299727)
(5.12227 -0.148553 -0.0268395)
(5.34861 -0.199407 -0.0272333)
(5.14141 -0.110115 -0.0287036)
(5.0791 0.0591843 -0.0473449)
(5.21193 0.0657097 -0.0386962)
(5.03132 0.0752705 -0.0478592)
(5.02862 0.0437361 -0.0607755)
(5.02213 -0.0120962 -0.0622293)
(5.02235 -0.0432286 -0.0620384)
(5.03886 -0.0969795 -0.0590259)
(5.1323 -0.146969 -0.0503761)
(5.35676 -0.19814 -0.0465517)
(5.14223 -0.109704 -0.0518081)
(5.08836 0.0650846 -0.104455)
(5.22309 0.0848274 -0.0948952)
(5.05891 0.0718276 -0.108207)
(5.04764 0.0386534 -0.125803)
(5.04044 -0.0128654 -0.125778)
(5.04107 -0.0442179 -0.124878)
(5.05983 -0.0944994 -0.12035)
(5.15344 -0.143372 -0.106697)
(5.35083 -0.194064 -0.0965918)
(5.11249 -0.105743 -0.101771)
(4.77295 0.0680455 -0.0755282)
(4.93474 0.109572 -0.0717279)
(4.84685 0.0704897 -0.079793)
(4.83214 0.0268336 -0.0874818)
(4.82212 -0.0134903 -0.0859366)
(4.82005 -0.0407216 -0.0857125)
(4.82829 -0.0780449 -0.0845029)
(4.87415 -0.117366 -0.0789189)
(4.96127 -0.16214 -0.0734037)
(4.73437 -0.0898932 -0.0763282)
(4.32944 0.09722 0.0984996)
(4.74687 0.122395 0.108354)
(4.78769 0.0353936 0.103434)
(4.75478 0.00354495 0.0980949)
(4.74828 -0.0137827 0.0980717)
(4.74364 -0.0309465 0.0987553)
(4.74097 -0.0431554 0.0998514)
(4.72612 -0.0596457 0.104559)
(4.68118 -0.12188 0.110143)
(4.36009 -0.0935662 0.102052)
(4.57012 0.100404 0.156071)
(5.06445 0.148677 0.172656)
(5.16881 0.040118 0.162424)
(5.12021 -0.00407546 0.150521)
(5.10753 -0.0157177 0.148416)
(5.10109 -0.0292732 0.150325)
(5.08959 -0.0344076 0.154905)
(5.03453 -0.0468362 0.166245)
(4.87297 -0.104796 0.174934)
(4.52054 -0.0814836 0.164123)
(4.54344 0.103692 0.0929303)
(5.04822 0.169184 0.103589)
(5.16065 0.0394872 0.096072)
(5.09569 -0.00821437 0.0867715)
(5.07987 -0.0169805 0.0843887)
(5.07399 -0.029958 0.0856148)
(5.06604 -0.0331899 0.0894911)
(5.01769 -0.0471463 0.0983829)
(4.83088 -0.105079 0.10232)
(4.43605 -0.0776401 0.0933663)
(4.53044 0.106167 0.0535434)
(5.03575 0.17526 0.0595971)
(5.14898 0.0356429 0.0558149)
(5.07825 -0.0103279 0.0512195)
(5.06227 -0.0174997 0.049689)
(5.05645 -0.0298647 0.0502263)
(5.04961 -0.0322174 0.0523735)
(5.00619 -0.0464737 0.0563356)
(4.81834 -0.105242 0.0561887)
(4.40853 -0.0773199 0.051101)
(4.52826 0.106233 0.0195094)
(5.03414 0.175381 0.0216579)
(5.14517 0.0334709 0.0206219)
(5.07185 -0.0112466 0.0193406)
(5.05596 -0.0177797 0.0187677)
(5.0501 -0.0296352 0.0188828)
(5.04328 -0.031429 0.0195919)
(5.00151 -0.0453663 0.0206133)
(4.81449 -0.104547 0.0203622)
(4.39982 -0.0773819 0.0184642)
(4.52908 0.10619 -0.0124643)
(5.03479 0.175467 -0.0134602)
(5.14583 0.0331244 -0.0133855)
(5.0724 -0.0115385 -0.0123116)
(5.05642 -0.0179906 -0.011896)
(5.05066 -0.0298331 -0.0121437)
(5.04406 -0.0315701 -0.0127682)
(5.00312 -0.0456036 -0.0140115)
(4.81626 -0.104884 -0.0136471)
(4.39912 -0.0773042 -0.0129619)
(4.53219 0.106234 -0.0468591)
(5.03704 0.175901 -0.0518378)
(5.1508 0.0346521 -0.0491198)
(5.07981 -0.0111834 -0.0448172)
(5.0636 -0.0180962 -0.0434269)
(5.05815 -0.0304162 -0.0441307)
(5.05214 -0.0325031 -0.0463332)
(5.01126 -0.0469742 -0.0505679)
(4.82367 -0.105992 -0.0501283)
(4.40627 -0.0770091 -0.0458556)
(4.54602 0.103882 -0.0871319)
(5.05028 0.170707 -0.0969376)
(5.1635 0.0380179 -0.0904796)
(5.09817 -0.00958827 -0.0813694)
(5.082 -0.0178731 -0.0790962)
(5.07682 -0.030734 -0.0805585)
(5.07047 -0.0333815 -0.0847908)
(5.02578 -0.0476148 -0.0942074)
(4.8379 -0.106043 -0.097415)
(4.43071 -0.077132 -0.0881459)
(4.57269 0.0998836 -0.152113)
(5.06799 0.150215 -0.168389)
(5.17257 0.0386143 -0.159026)
(5.12345 -0.0057721 -0.147011)
(5.11018 -0.0168461 -0.144955)
(5.10396 -0.0301765 -0.147226)
(5.09301 -0.0346396 -0.152563)
(5.03886 -0.0478696 -0.164845)
(4.87194 -0.106577 -0.172934)
(4.50884 -0.0811256 -0.160862)
(4.33046 0.0967 -0.0972608)
(4.74992 0.121856 -0.107194)
(4.7915 0.0340467 -0.102404)
(4.75799 0.00206204 -0.0968938)
(4.75101 -0.0149513 -0.0968201)
(4.74578 -0.0318587 -0.0974796)
(4.74218 -0.0434913 -0.0983432)
(4.72548 -0.0596322 -0.102611)
(4.67567 -0.121094 -0.108259)
(4.3533 -0.0931571 -0.101258)
(4.46073 0.0725126 0.0900228)
(4.8565 0.117541 0.088567)
(4.72275 0.0590985 0.0966334)
(4.68483 0.0124538 0.103279)
(4.65783 -0.0342931 0.103302)
(4.64999 -0.068595 0.103829)
(4.66696 -0.110488 0.104264)
(4.74198 -0.153518 0.10023)
(4.86346 -0.198728 0.0936419)
(4.33013 -0.106717 0.089413)
(5.07934 0.0871568 0.129097)
(5.40284 0.109281 0.123602)
(5.21489 0.0638189 0.140943)
(5.19231 0.0278966 0.156181)
(5.1764 -0.0294969 0.158019)
(5.17132 -0.0690886 0.157674)
(5.19901 -0.122565 0.153192)
(5.32383 -0.169009 0.14013)
(5.58423 -0.226423 0.132036)
(5.0846 -0.133273 0.131272)
(5.04784 0.0853654 0.0766999)
(5.36971 0.0876098 0.0722292)
(5.18103 0.0645215 0.0834126)
(5.1687 0.0327324 0.0939638)
(5.15621 -0.0274338 0.0958729)
(5.15008 -0.0658413 0.0956789)
(5.17357 -0.120483 0.0918371)
(5.28932 -0.162644 0.0818441)
(5.57505 -0.220374 0.0788559)
(5.13877 -0.135894 0.0856101)
(5.01888 0.0833497 0.0498355)
(5.34748 0.0809919 0.0474256)
(5.15769 0.0683959 0.0532134)
(5.14687 0.0344159 0.0581242)
(5.13409 -0.0269502 0.0590946)
(5.12757 -0.064753 0.0589191)
(5.15019 -0.119711 0.0566942)
(5.26101 -0.160779 0.0521194)
(5.54853 -0.218285 0.052877)
(5.13127 -0.135524 0.0577973)
(5.00718 0.0837332 0.022071)
(5.33732 0.0810565 0.0206882)
(5.14914 0.070652 0.022393)
(5.1391 0.034948 0.0235658)
(5.12598 -0.0269259 0.0236607)
(5.11944 -0.0647907 0.0233389)
(5.14255 -0.120171 0.0222049)
(5.25277 -0.161344 0.020717)
(5.54096 -0.218732 0.0209392)
(5.12898 -0.135341 0.0228053)
(5.0077 0.0838186 -0.00917313)
(5.33807 0.0809347 -0.00981273)
(5.14994 0.0707999 -0.0103397)
(5.13977 0.0348996 -0.0117916)
(5.12668 -0.0271765 -0.0126431)
(5.11988 -0.0651568 -0.0131378)
(5.14246 -0.120712 -0.0133479)
(5.25132 -0.161782 -0.0125436)
(5.5388 -0.21891 -0.0136567)
(5.13005 -0.135462 -0.0144292)
(5.02099 0.0832556 -0.0383679)
(5.35047 0.0799824 -0.0378554)
(5.16015 0.0688222 -0.0423799)
(5.14882 0.0343372 -0.0473495)
(5.13605 -0.0276939 -0.0489724)
(5.12864 -0.0658809 -0.0494683)
(5.14957 -0.121543 -0.0482704)
(5.25627 -0.162454 -0.0442023)
(5.54201 -0.219158 -0.0459647)
(5.13469 -0.135953 -0.0504526)
(5.05083 0.0850824 -0.0671059)
(5.374 0.0854961 -0.0641645)
(5.18482 0.0652086 -0.0741569)
(5.17167 0.0327432 -0.0847694)
(5.1592 -0.0286078 -0.0870887)
(5.15153 -0.0677016 -0.0872215)
(5.17198 -0.123723 -0.0835756)
(5.28165 -0.165655 -0.0733957)
(5.56632 -0.221728 -0.0718747)
(5.1466 -0.136501 -0.0803187)
(5.08471 0.0878303 -0.122746)
(5.40686 0.107252 -0.11787)
(5.21983 0.0645238 -0.134266)
(5.19666 0.0280721 -0.149908)
(5.18101 -0.0307843 -0.151949)
(5.17479 -0.0711851 -0.151447)
(5.20043 -0.125942 -0.146109)
(5.32242 -0.170914 -0.132007)
(5.58754 -0.226012 -0.125229)
(5.10328 -0.133806 -0.127629)
(4.47226 0.0730902 -0.0878355)
(4.86367 0.117106 -0.086181)
(4.72923 0.0591325 -0.0940767)
(4.69159 0.012093 -0.101066)
(4.66483 -0.0356744 -0.101258)
(4.65687 -0.0707163 -0.101953)
(4.67391 -0.113504 -0.102849)
(4.75043 -0.156167 -0.0998617)
(4.87711 -0.201319 -0.0936762)
(4.34604 -0.108016 -0.0879658)
(3.76952 0.0824532 0.098626)
(4.55474 0.0771049 0.118211)
(4.6326 -0.00922656 0.108399)
(4.57273 -0.0403432 0.100394)
(4.54914 -0.0524097 0.0985467)
(4.53621 -0.0641724 0.0980879)
(4.53346 -0.0670844 0.0976526)
(4.51215 -0.0695679 0.101818)
(4.3943 -0.115583 0.111047)
(3.76418 -0.086605 0.103537)
(4.31476 0.0755463 0.174627)
(5.23292 0.0957313 0.202281)
(5.34541 -0.00275152 0.17962)
(5.26834 -0.0469222 0.162266)
(5.23603 -0.0553515 0.158448)
(5.22255 -0.0670897 0.160191)
(5.214 -0.0682043 0.168255)
(5.15617 -0.0792746 0.186493)
(4.88791 -0.119188 0.198818)
(4.12412 -0.0714835 0.176364)
(4.3529 0.0722215 0.116404)
(5.25832 0.110815 0.13272)
(5.35889 -0.00877516 0.117867)
(5.27069 -0.0540433 0.10546)
(5.2349 -0.0577624 0.102806)
(5.22267 -0.069024 0.104637)
(5.22153 -0.0687658 0.112584)
(5.18561 -0.0856502 0.129263)
(4.90619 -0.126971 0.137254)
(4.05209 -0.0704999 0.112956)
(4.34467 0.0730985 0.07427)
(5.23873 0.117606 0.0831169)
(5.33783 -0.015411 0.075176)
(5.24679 -0.0578704 0.0690233)
(5.21092 -0.0586125 0.0678373)
(5.19871 -0.0688503 0.0689253)
(5.19945 -0.0672069 0.0734068)
(5.17305 -0.0851952 0.0820519)
(4.89974 -0.128848 0.0847164)
(4.02328 -0.0726218 0.0690437)
(4.34089 0.0721033 0.0304771)
(5.23425 0.116813 0.0339448)
(5.33009 -0.0191405 0.0313346)
(5.23697 -0.0595191 0.0295697)
(5.20097 -0.0589811 0.0291795)
(5.18851 -0.0683371 0.0294302)
(5.18897 -0.065651 0.0308197)
(5.16449 -0.0832825 0.0329149)
(4.89358 -0.128043 0.0333733)
(4.01086 -0.0736003 0.0281253)
(4.34351 0.0716565 -0.0138968)
(5.23643 0.116454 -0.0147577)
(5.332 -0.0196712 -0.0139423)
(5.23889 -0.0598685 -0.0125868)
(5.20275 -0.0592041 -0.0122498)
(5.1904 -0.068442 -0.0128049)
(5.1911 -0.0654627 -0.0142224)
(5.16789 -0.0828236 -0.0178416)
(4.898 -0.127641 -0.0191339)
(4.01087 -0.0738106 -0.0153213)
(4.35174 0.072246 -0.0589798)
(5.24385 0.117609 -0.0652989)
(5.34306 -0.0168197 -0.0591168)
(5.2523 -0.0589318 -0.0535158)
(5.2161 -0.0592306 -0.0524157)
(5.20439 -0.0690393 -0.0538543)
(5.20599 -0.0662567 -0.058588)
(5.1834 -0.0832839 -0.0687894)
(4.91289 -0.127237 -0.0720691)
(4.02296 -0.0731899 -0.0567841)
(4.36493 0.0709952 -0.10353)
(5.26684 0.111099 -0.117734)
(5.36702 -0.0110912 -0.104331)
(5.27946 -0.0558715 -0.0922863)
(5.2432 -0.0587327 -0.0898911)
(5.23192 -0.0692492 -0.0924158)
(5.23271 -0.0668522 -0.101604)
(5.20272 -0.0823522 -0.120628)
(4.92596 -0.124936 -0.12849)
(4.04897 -0.0715781 -0.100884)
(4.32908 0.0730415 -0.166213)
(5.24709 0.0944167 -0.193138)
(5.35676 -0.00607758 -0.171392)
(5.28029 -0.0496059 -0.153616)
(5.24714 -0.0570665 -0.150081)
(5.23397 -0.0684041 -0.152908)
(5.22615 -0.0680615 -0.163344)
(5.17045 -0.0799692 -0.184468)
(4.8966 -0.12179 -0.195895)
(4.10904 -0.0728484 -0.167762)
(3.77802 0.0805485 -0.0954003)
(4.56852 0.0757368 -0.115654)
(4.64649 -0.0112708 -0.106108)
(4.58596 -0.0425418 -0.097567)
(4.56152 -0.0544757 -0.0956462)
(4.54735 -0.06642 -0.0953162)
(4.54199 -0.0691181 -0.0948061)
(4.51568 -0.0722028 -0.0977318)
(4.38786 -0.116451 -0.105762)
(3.75262 -0.086024 -0.10013)
(4.1387 0.0506902 0.0859868)
(4.69326 0.073938 0.0774331)
(4.52506 -0.00812273 0.0894379)
(4.47042 -0.0445742 0.0986364)
(4.42488 -0.0834835 0.100781)
(4.4074 -0.106771 0.103288)
(4.42909 -0.137013 0.106638)
(4.5257 -0.171609 0.106254)
(4.66832 -0.214633 0.103005)
(3.82525 -0.117088 0.09993)
(5.04918 0.0779784 0.110848)
(5.51084 0.104282 0.106244)
(5.32863 0.0162312 0.135802)
(5.29588 -0.0194248 0.156001)
(5.26836 -0.0733783 0.159258)
(5.25467 -0.104558 0.159506)
(5.28234 -0.146026 0.151502)
(5.41921 -0.169055 0.131796)
(5.73188 -0.218695 0.127686)
(5.02772 -0.14166 0.147265)
(5.01885 0.0871539 0.0731991)
(5.49595 0.0953382 0.0753249)
(5.33851 0.0212769 0.092439)
(5.31411 -0.0123752 0.104472)
(5.29127 -0.0707227 0.105992)
(5.27751 -0.100786 0.105416)
(5.29819 -0.143074 0.0980044)
(5.40678 -0.155715 0.0804347)
(5.72124 -0.197778 0.0774504)
(5.14778 -0.129136 0.106847)
(4.98467 0.0885667 0.0575098)
(5.47538 0.0856173 0.0591662)
(5.3187 0.0233361 0.0668565)
(5.29339 -0.0104545 0.0718281)
(5.27007 -0.0703369 0.0721569)
(5.25688 -0.099408 0.0716115)
(5.2775 -0.141506 0.0680221)
(5.37787 -0.150397 0.0596266)
(5.68782 -0.188838 0.0596905)
(5.14672 -0.12039 0.077586)
(4.97503 0.0902195 0.030733)
(5.46454 0.084787 0.030006)
(5.30943 0.0247156 0.0323601)
(5.28453 -0.0102398 0.0333742)
(5.26091 -0.0706337 0.0330132)
(5.24812 -0.0995348 0.0323723)
(5.26992 -0.141809 0.0305221)
(5.37019 -0.149751 0.0279306)
(5.68154 -0.186822 0.0278261)
(5.15081 -0.116851 0.0328396)
(4.97689 0.0910147 -0.00291283)
(5.46617 0.0850632 -0.0066421)
(5.31151 0.0247448 -0.0072248)
(5.28651 -0.0105279 -0.00840817)
(5.26292 -0.0712581 -0.00929208)
(5.24956 -0.100742 -0.0101266)
(5.27039 -0.144 -0.0110945)
(5.36814 -0.152893 -0.0097006)
(5.67697 -0.189739 -0.0108299)
(5.15137 -0.116787 -0.0162457)
(4.99018 0.0903942 -0.0325664)
(5.48155 0.0850591 -0.0384427)
(5.32522 0.0232622 -0.0442615)
(5.29929 -0.0111428 -0.0490346)
(5.27594 -0.0721519 -0.0503914)
(5.26099 -0.103052 -0.0510402)
(5.27868 -0.148421 -0.0497022)
(5.37185 -0.160226 -0.0421968)
(5.67465 -0.19769 -0.0433517)
(5.14921 -0.120052 -0.0622898)
(5.02596 0.0900814 -0.0521075)
(5.50518 0.0948124 -0.0580119)
(5.34933 0.0215324 -0.0735979)
(5.32367 -0.0130938 -0.0852313)
(5.30081 -0.0734101 -0.0872242)
(5.28422 -0.106375 -0.0870004)
(5.2998 -0.154124 -0.0800798)
(5.39714 -0.170902 -0.0615811)
(5.70193 -0.210062 -0.0596524)
(5.15544 -0.12798 -0.0942242)
(5.06218 0.0822348 -0.0955501)
(5.52125 0.107273 -0.0929933)
(5.34389 0.018541 -0.122151)
(5.31012 -0.0192159 -0.142961)
(5.28302 -0.0759208 -0.146126)
(5.26689 -0.109816 -0.14555)
(5.2896 -0.155719 -0.135462)
(5.41744 -0.179161 -0.112937)
(5.72981 -0.223977 -0.110395)
(5.05684 -0.140364 -0.138431)
(4.16903 0.0524734 -0.080708)
(4.7116 0.0746949 -0.071376)
(4.54442 -0.00721768 -0.0833108)
(4.49087 -0.0447267 -0.0934933)
(4.44607 -0.0855094 -0.0957115)
(4.42824 -0.110686 -0.0980574)
(4.44952 -0.143001 -0.101367)
(4.54733 -0.176131 -0.102894)
(4.69722 -0.218415 -0.102346)
(3.8636 -0.11956 -0.0971491)
(3.13708 0.0468481 0.109569)
(4.32039 -0.0247783 0.141722)
(4.44424 -0.119358 0.121021)
(4.33994 -0.141447 0.107026)
(4.28118 -0.131459 0.104694)
(4.25341 -0.113002 0.103965)
(4.25049 -0.085271 0.104516)
(4.21927 -0.0690191 0.110966)
(3.9633 -0.097248 0.122914)
(3.01343 -0.0649909 0.106094)
(3.97113 0.0339858 0.225111)
(5.36333 -0.0496793 0.253617)
(5.48254 -0.11867 0.202169)
(5.3606 -0.140959 0.174657)
(5.29385 -0.127558 0.171251)
(5.26768 -0.113254 0.176408)
(5.26877 -0.0885827 0.197708)
(5.22526 -0.0983323 0.239946)
(4.81628 -0.134627 0.268684)
(3.53306 -0.0665276 0.215274)
(4.13343 0.00322984 0.167756)
(5.48376 -0.0622533 0.173986)
(5.56012 -0.131858 0.139716)
(5.42592 -0.147755 0.122499)
(5.35547 -0.126809 0.120987)
(5.33117 -0.107987 0.126655)
(5.34555 -0.0751364 0.146504)
(5.35194 -0.0865456 0.186187)
(4.98453 -0.134653 0.215767)
(3.569 -0.0834223 0.166642)
(4.15786 -0.00769591 0.104897)
(5.47951 -0.059852 0.108475)
(5.5485 -0.140836 0.0926673)
(5.41149 -0.152905 0.0845527)
(5.34031 -0.126754 0.0837981)
(5.31577 -0.103775 0.087025)
(5.33341 -0.0653856 0.0968621)
(5.35692 -0.0745001 0.117213)
(5.01212 -0.128337 0.133843)
(3.58119 -0.0917194 0.107287)
(4.16329 -0.0124942 0.0451359)
(5.48216 -0.0630399 0.0474747)
(5.54521 -0.146332 0.0426223)
(5.40554 -0.155311 0.0404188)
(5.3341 -0.126733 0.0402253)
(5.30962 -0.101602 0.0410041)
(5.32796 -0.0607885 0.043549)
(5.35471 -0.067988 0.0477883)
(5.01377 -0.123862 0.0517202)
(3.57547 -0.0947038 0.0446897)
(4.16829 -0.0139174 -0.0147887)
(5.48737 -0.0637142 -0.0121931)
(5.54948 -0.146598 -0.00957154)
(5.4098 -0.155412 -0.00755615)
(5.33832 -0.126926 -0.00721353)
(5.31432 -0.101616 -0.00869303)
(5.33307 -0.0600945 -0.0119168)
(5.361 -0.0655294 -0.0208596)
(5.0202 -0.120558 -0.0288851)
(3.57381 -0.0958937 -0.0219228)
(4.17325 -0.0114693 -0.0766062)
(5.49295 -0.060003 -0.0755052)
(5.56047 -0.141197 -0.0619803)
(5.42399 -0.15326 -0.0542683)
(5.35278 -0.127293 -0.0533487)
(5.32975 -0.103609 -0.0572598)
(5.34869 -0.062607 -0.0677331)
(5.37532 -0.0664557 -0.0918335)
(5.03117 -0.118128 -0.111534)
(3.57699 -0.0953931 -0.0844856)
(4.16003 -0.00322909 -0.144608)
(5.50604 -0.0632228 -0.146349)
(5.57923 -0.132425 -0.113457)
(5.44637 -0.148426 -0.0964242)
(5.37588 -0.127658 -0.0949601)
(5.35387 -0.107697 -0.101685)
(5.37086 -0.0700679 -0.122836)
(5.38277 -0.0737372 -0.167006)
(5.0173 -0.120499 -0.199275)
(3.56456 -0.0899534 -0.144775)
(4.00402 0.0258358 -0.212291)
(5.39699 -0.0568351 -0.238078)
(5.50995 -0.121805 -0.18527)
(5.38975 -0.142656 -0.156631)
(5.3227 -0.129316 -0.153622)
(5.2981 -0.114916 -0.160801)
(5.3018 -0.087696 -0.185631)
(5.26215 -0.0949662 -0.233377)
(4.84521 -0.132418 -0.263405)
(3.51666 -0.0738769 -0.1995)
(3.16045 0.0445261 -0.104498)
(4.35515 -0.0275506 -0.137944)
(4.47863 -0.120889 -0.11603)
(4.37503 -0.14327 -0.100623)
(4.31575 -0.134243 -0.0982391)
(4.28649 -0.117842 -0.0984719)
(4.27975 -0.092686 -0.100654)
(4.23748 -0.0810614 -0.105939)
(3.95922 -0.105834 -0.113871)
(2.99078 -0.0666414 -0.0987953)
(4.09727 -0.0361182 0.086008)
(4.56023 -0.0531461 0.0685093)
(4.30864 -0.173078 0.0887769)
(4.20876 -0.183368 0.100763)
(4.12879 -0.18898 0.10332)
(4.09761 -0.169278 0.105734)
(4.12597 -0.162901 0.111477)
(4.25186 -0.170333 0.118227)
(4.47241 -0.223775 0.125597)
(3.42225 -0.138255 0.147263)
(5.22182 0.0270777 0.0989371)
(5.61329 0.0591337 0.10057)
(5.39153 -0.117356 0.152063)
(5.33097 -0.145487 0.173912)
(5.27757 -0.168974 0.175809)
(5.24967 -0.163661 0.172685)
(5.27285 -0.169822 0.156861)
(5.40534 -0.152281 0.123445)
(5.78956 -0.190546 0.119749)
(5.06992 -0.133531 0.200239)
(5.21529 0.0653876 0.0814182)
(5.63339 0.0705355 0.0937715)
(5.46478 -0.115702 0.122357)
(5.41471 -0.144016 0.132083)
(5.36569 -0.168923 0.131248)
(5.33676 -0.164072 0.129007)
(5.35128 -0.176665 0.117874)
(5.43533 -0.157764 0.0887655)
(5.76426 -0.177186 0.0779392)
(5.24902 -0.0840925 0.151326)
(5.18773 0.0746555 0.0823371)
(5.62101 0.0588726 0.0837177)
(5.45819 -0.120311 0.0924895)
(5.40452 -0.146172 0.0952293)
(5.35458 -0.170162 0.0944419)
(5.32677 -0.163352 0.0938749)
(5.34326 -0.176725 0.0910692)
(5.41689 -0.154894 0.078648)
(5.73272 -0.16714 0.0739573)
(5.25854 -0.0597737 0.110802)
(5.18621 0.0768214 0.0501849)
(5.6135 0.0559391 0.0475521)
(5.45338 -0.121732 0.0489264)
(5.39954 -0.147438 0.0491539)
(5.34902 -0.170703 0.0484909)
(5.32097 -0.162709 0.0479907)
(5.33798 -0.176047 0.0466587)
(5.41031 -0.154039 0.042929)
(5.72907 -0.164233 0.0391865)
(5.27484 -0.0510038 0.0452664)
(5.19037 0.0783646 0.00478776)
(5.61607 0.0568269 -0.00148725)
(5.45764 -0.121714 -0.00178723)
(5.40439 -0.147914 -0.00199448)
(5.35385 -0.171541 -0.00282423)
(5.32433 -0.164543 -0.00408779)
(5.33964 -0.180324 -0.00682748)
(5.40878 -0.163098 -0.00665784)
(5.72326 -0.174459 -0.0102319)
(5.27645 -0.0508128 -0.0252642)
(5.1995 0.0790679 -0.0333793)
(5.63123 0.0596171 -0.042388)
(5.47219 -0.120571 -0.0493202)
(5.41927 -0.147313 -0.0516181)
(5.36915 -0.172531 -0.0521314)
(5.33708 -0.168793 -0.0530769)
(5.34887 -0.189746 -0.0540461)
(5.41479 -0.181049 -0.045846)
(5.71817 -0.196413 -0.0473143)
(5.26541 -0.0585468 -0.0897293)
(5.23258 0.0736916 -0.0404063)
(5.64942 0.0731054 -0.0592525)
(5.48818 -0.116101 -0.0863554)
(5.43915 -0.145646 -0.095405)
(5.39009 -0.172507 -0.0952409)
(5.35511 -0.172619 -0.0938805)
(5.36218 -0.197799 -0.0864495)
(5.43416 -0.197597 -0.0597893)
(5.74207 -0.219722 -0.0509709)
(5.26213 -0.0807462 -0.128176)
(5.25569 0.0380745 -0.0671022)
(5.63728 0.070053 -0.0738687)
(5.4259 -0.114027 -0.127032)
(5.36728 -0.145997 -0.149401)
(5.31457 -0.172783 -0.150935)
(5.28111 -0.173164 -0.146928)
(5.29495 -0.191525 -0.131218)
(5.41102 -0.189012 -0.0957232)
(5.78131 -0.224157 -0.0904682)
(5.11252 -0.129568 -0.179332)
(4.1572 -0.0321989 -0.0731759)
(4.59969 -0.0442139 -0.0557235)
(4.35365 -0.167368 -0.0778306)
(4.25872 -0.181124 -0.0908624)
(4.18069 -0.190849 -0.093131)
(4.14819 -0.175036 -0.0941285)
(4.17509 -0.173598 -0.0967133)
(4.30268 -0.183252 -0.1036)
(4.52658 -0.235998 -0.116988)
(3.5021 -0.143667 -0.136845)
(2.53693 -0.0215746 0.162818)
(4.09128 -0.248633 0.189433)
(4.23031 -0.341211 0.136206)
(4.04147 -0.347665 0.116673)
(3.92865 -0.280683 0.110854)
(3.89211 -0.182452 0.112276)
(3.90508 -0.0885378 0.118697)
(3.88696 -0.0450234 0.130951)
(3.4338 -0.0644163 0.161417)
(1.9649 -0.0239 0.14913)
(3.5762 -0.0447565 0.321176)
(5.47004 -0.30743 0.328125)
(5.58761 -0.326605 0.23091)
(5.38019 -0.311034 0.196458)
(5.25917 -0.255627 0.19095)
(5.22942 -0.17122 0.200782)
(5.26342 -0.0812955 0.240758)
(5.28443 -0.0606314 0.327778)
(4.7439 -0.111439 0.412841)
(2.71022 -0.0688616 0.355884)
(3.85899 -0.098158 0.25223)
(5.70495 -0.347595 0.232646)
(5.74503 -0.337583 0.173952)
(5.52162 -0.308855 0.151638)
(5.39888 -0.24812 0.148976)
(5.37707 -0.153052 0.157159)
(5.42964 -0.0335496 0.187297)
(5.52687 0.0281365 0.261999)
(5.12327 -0.026579 0.348395)
(3.04864 -0.0997484 0.321428)
(3.93559 -0.127477 0.150273)
(5.72716 -0.364738 0.144513)
(5.74474 -0.351373 0.121682)
(5.51928 -0.315442 0.110301)
(5.39671 -0.246993 0.108952)
(5.37605 -0.141917 0.113343)
(5.43185 -0.00705757 0.126974)
(5.55491 0.0713164 0.160423)
(5.19014 0.0184306 0.202497)
(3.14354 -0.101217 0.188243)
(3.9548 -0.137026 0.0625811)
(5.73531 -0.374509 0.0649427)
(5.74305 -0.359439 0.0608256)
(5.516 -0.31928 0.0584407)
(5.39348 -0.247469 0.0580565)
(5.37358 -0.138577 0.0582526)
(5.43178 0.00040822 0.060112)
(5.56296 0.0824614 0.0641175)
(5.19855 0.0295374 0.0699215)
(3.13709 -0.103172 0.0650355)
(3.96152 -0.138422 -0.0163019)
(5.74354 -0.375678 -0.00911293)
(5.75051 -0.359116 -0.00249618)
(5.52393 -0.318898 0.00196172)
(5.40151 -0.248253 0.00269994)
(5.38257 -0.140312 -0.000629352)
(5.44179 -0.00223525 -0.0068618)
(5.57349 0.0804386 -0.0227887)
(5.19969 0.0303484 -0.0458266)
(3.11654 -0.109408 -0.0437807)
(3.96003 -0.132498 -0.104884)
(5.75101 -0.367038 -0.0914823)
(5.76689 -0.350597 -0.0672405)
(5.54307 -0.314796 -0.0539354)
(5.42101 -0.249224 -0.0519564)
(5.40319 -0.146444 -0.0587768)
(5.46174 -0.0129966 -0.075244)
(5.58541 0.0657996 -0.114998)
(5.1925 0.0214014 -0.170025)
(3.08636 -0.118708 -0.157911)
(3.89958 -0.106623 -0.215229)
(5.74564 -0.351332 -0.188462)
(5.78229 -0.334547 -0.128059)
(5.56194 -0.30674 -0.103228)
(5.43981 -0.250816 -0.0996515)
(5.42182 -0.158652 -0.109116)
(5.47809 -0.038337 -0.137293)
(5.57791 0.0238192 -0.213735)
(5.13525 -0.0188287 -0.309719)
(2.98069 -0.124202 -0.281148)
(3.62355 -0.0526323 -0.300772)
(5.53137 -0.316482 -0.302139)
(5.64463 -0.322997 -0.199287)
(5.44153 -0.306869 -0.161536)
(5.32161 -0.257357 -0.155909)
(5.29529 -0.175794 -0.166972)
(5.33542 -0.085034 -0.204458)
(5.36293 -0.0641878 -0.293677)
(4.7793 -0.108457 -0.386453)
(2.66152 -0.0943191 -0.319165)
(2.58556 -0.0222646 -0.156157)
(4.16085 -0.252694 -0.181375)
(4.30546 -0.336368 -0.123177)
(4.12157 -0.343903 -0.101676)
(4.00945 -0.283351 -0.0963666)
(3.97185 -0.19167 -0.100458)
(3.98285 -0.108945 -0.114348)
(3.95352 -0.0894917 -0.132268)
(3.44255 -0.104219 -0.153192)
(1.91711 -0.0386726 -0.13594)
(4.45447 -0.30039 0.129942)
(4.52174 -0.358032 0.0663928)
(3.99258 -0.526259 0.114956)
(3.76319 -0.474264 0.12305)
(3.65853 -0.363373 0.120223)
(3.61607 -0.238203 0.119039)
(3.636 -0.138772 0.126914)
(3.82369 -0.0573272 0.15434)
(4.32775 -0.231271 0.183009)
(3.28813 -0.27928 0.367582)
(5.65623 -0.226334 0.190713)
(5.76662 -0.171533 0.130901)
(5.37585 -0.402583 0.199619)
(5.21409 -0.413409 0.216044)
(5.13752 -0.33545 0.209476)
(5.09544 -0.229165 0.208035)
(5.09857 -0.154705 0.199446)
(5.23551 -0.0887493 0.163617)
(5.74331 -0.155583 0.149918)
(5.3318 -0.0932081 0.42146)
(5.71594 -0.204234 0.165714)
(5.86608 -0.140093 0.140614)
(5.54126 -0.397569 0.168467)
(5.38985 -0.416082 0.173816)
(5.31695 -0.33261 0.170878)
(5.27045 -0.221498 0.175535)
(5.26845 -0.162885 0.180965)
(5.36839 -0.129945 0.160509)
(5.76175 -0.159881 0.137119)
(5.47646 0.0466378 0.286675)
(5.70617 -0.19352 0.143784)
(5.87049 -0.1426 0.1227)
(5.54788 -0.407825 0.124242)
(5.39288 -0.421726 0.126491)
(5.31968 -0.332756 0.126209)
(5.27288 -0.216905 0.129174)
(5.27216 -0.157528 0.135631)
(5.37012 -0.125964 0.134301)
(5.75985 -0.143176 0.121184)
(5.50319 0.0955149 0.178003)
(5.71059 -0.193115 0.0829707)
(5.86665 -0.144926 0.0725885)
(5.54508 -0.411699 0.0699683)
(5.39159 -0.423725 0.0712211)
(5.31835 -0.332733 0.0710712)
(5.27025 -0.214208 0.0714712)
(5.26722 -0.152109 0.0737764)
(5.36159 -0.123593 0.0745074)
(5.75772 -0.140638 0.058331)
(5.53897 0.10917 0.0588914)
(5.71768 -0.19124 0.0125157)
(5.87166 -0.140662 0.0100933)
(5.55329 -0.408842 0.0117437)
(5.40173 -0.422932 0.012811)
(5.32889 -0.333192 0.0124974)
(5.27866 -0.214783 0.0106256)
(5.27373 -0.152727 0.00679251)
(5.36831 -0.134597 0.00293522)
(5.762 -0.159972 -0.0180743)
(5.55621 0.10817 -0.0486528)
(5.72568 -0.186739 -0.0573187)
(5.88867 -0.131516 -0.0464496)
(5.57362 -0.40036 -0.0469262)
(5.42347 -0.419193 -0.0472152)