/*--------------------------------*- C++ -*----------------------------------*\
| =========                 |                                                 |
| \\      /  F ield         | OpenFOAM: The Open Source CFD Toolbox           |
|  \\    /   O peration     | Version:  1.7.x                                 |
|   \\  /    A nd           | Web:      www.OpenFOAM.com                      |
|    \\/     M anipulation  |                                                 |
\*---------------------------------------------------------------------------*/
FoamFile
{
    version     2.0;
    format      ascii;
    class       surfaceScalarField;
    location    "0.4";
    object      phi;
}
// * * * * * * * * * * * * * * * * * * * * * * * * * * * * * * * * * * * * * //

dimensions      [0 3 -1 0 0 0 0];

internalField   nonuniform List<scalar> 
2700
(
0.0499985
7.91084e-07
7.07722e-07
0.0499969
8.32281e-07
7.43574e-07
0.0499952
8.80536e-07
7.98916e-07
0.049994
6.77593e-07
6.13294e-07
0.0499934
2.6942e-07
2.40652e-07
0.0499933
5.85856e-08
5.09696e-08
0.0499933
2.53928e-08
2.24445e-08
0.0499933
1.88835e-08
1.70155e-08
0.0499932
5.99917e-09
5.30603e-09
7.8284e-11
-4.09458e-12
0.0499995
5.76537e-07
7.07662e-07
0.0499989
6.47604e-07
7.43934e-07
0.0499984
6.6386e-07
7.98641e-07
0.0499979
5.19722e-07
6.12909e-07
0.0499977
2.17576e-07
2.40768e-07
0.0499977
5.15111e-08
5.1091e-08
0.0499977
2.15323e-08
2.25497e-08
0.0499976
1.61146e-08
1.72276e-08
0.0499976
5.25325e-09
5.43366e-09
6.20577e-11
3.29043e-11
0.0499995
3.84343e-07
7.07698e-07
0.0499989
4.52781e-07
7.43741e-07
0.0499983
4.53256e-07
7.98603e-07
0.0499979
3.59131e-07
6.1296e-07
0.0499977
1.57347e-07
2.40723e-07
0.0499977
4.00482e-08
5.09802e-08
0.0499977
1.64784e-08
2.24255e-08
0.0499976
1.26879e-08
1.71511e-08
0.0499976
4.09639e-09
5.40206e-09
-8.69582e-11
2.24249e-11
0.0499995
2.0568e-07
7.07693e-07
0.0499989
2.52413e-07
7.4373e-07
0.0499983
2.47804e-07
7.98829e-07
0.0499979
1.9842e-07
6.13304e-07
0.0499977
9.09038e-08
2.40934e-07
0.0499977
2.41949e-08
5.10559e-08
0.0499977
9.76774e-09
2.24318e-08
0.0499976
8.29734e-09
1.7155e-08
0.0499976
2.48197e-09
5.45108e-09
-3.49111e-10
3.41526e-11
0.0499995
3.44037e-08
7.08012e-07
0.0499989
5.04157e-08
7.43291e-07
0.0499983
4.44839e-08
7.98495e-07
0.0499979
3.71764e-08
6.13164e-07
0.0499977
2.12228e-08
2.4072e-07
0.0499977
6.42712e-09
5.09007e-08
0.0499977
2.47751e-09
2.23669e-08
0.0499976
3.47249e-09
1.70894e-08
0.0499976
7.48066e-10
5.45661e-09
-5.54532e-10
5.66431e-11
0.0499995
-1.35337e-07
7.07591e-07
0.0499989
-1.51588e-07
7.43501e-07
0.0499983
-1.5942e-07
7.99076e-07
0.0499979
-1.24741e-07
6.1362e-07
0.0499977
-4.92117e-08
2.40959e-07
0.0499977
-1.16592e-08
5.09841e-08
0.0499977
-4.93757e-09
2.23536e-08
0.0499976
-1.62018e-09
1.7056e-08
0.0499976
-1.0389e-09
5.46467e-09
-6.96127e-10
6.94167e-11
0.0499995
-3.10749e-07
7.07839e-07
0.0499989
-3.51563e-07
7.43605e-07
0.0499983
-3.6444e-07
7.98717e-07
0.0499979
-2.8609e-07
6.13154e-07
0.0499977
-1.1725e-07
2.40804e-07
0.0499977
-2.8003e-08
5.10485e-08
0.0499977
-1.18077e-08
2.23321e-08
0.0499976
-6.75753e-09
1.69789e-08
0.0499976
-2.73522e-09
5.44088e-09
-7.29907e-10
7.23841e-11
0.0499995
-4.96459e-07
7.07853e-07
0.0499989
-5.46836e-07
7.43836e-07
0.0499983
-5.74751e-07
7.98527e-07
0.0499979
-4.47794e-07
6.12929e-07
0.0499977
-1.80424e-07
2.41002e-07
0.0499977
-4.06552e-08
5.13544e-08
0.0499977
-1.73878e-08
2.24108e-08
0.0499976
-1.14361e-08
1.69357e-08
0.0499976
-4.07624e-09
5.48599e-09
-6.1183e-10
1.14236e-10
0.0499995
-7.01831e-07
7.0788e-07
0.0499989
-7.33393e-07
7.4372e-07
0.0499984
-7.89853e-07
7.98597e-07
0.0499979
-6.05867e-07
6.12886e-07
0.0499977
-2.36187e-07
2.40889e-07
0.0499977
-4.97092e-08
5.13133e-08
0.0499977
-2.20226e-08
2.23656e-08
0.0499976
-1.57906e-08
1.68532e-08
0.0499976
-5.20409e-09
5.43425e-09
-3.75652e-10
1.07109e-10
0.0499986
7.07881e-07
0.0499971
7.43685e-07
0.0499955
7.98609e-07
0.0499943
6.12798e-07
0.0499938
2.40857e-07
0.0499937
5.14065e-08
0.0499937
2.23688e-08
0.0499937
1.6765e-08
0.0499936
5.42959e-09
1.24647e-10
0.0499994
7.91025e-07
5.08662e-07
0.0499988
8.32649e-07
5.67543e-07
0.0499981
8.80265e-07
5.92156e-07
0.0499976
6.77207e-07
4.62107e-07
0.0499973
2.69537e-07
1.89567e-07
0.0499973
5.87066e-08
4.29756e-08
0.0499973
2.54966e-08
1.82322e-08
0.0499972
1.90952e-08
1.41707e-08
0.0499972
6.12586e-09
4.49034e-09
1.15484e-10
-5.99954e-11
0.0500004
5.76524e-07
5.08644e-07
0.0500008
6.47763e-07
5.677e-07
0.0500012
6.63829e-07
5.92132e-07
0.0500015
5.19672e-07
4.62062e-07
0.0500016
2.17752e-07
1.89743e-07
0.0500016
5.16074e-08
4.30762e-08
0.0500016
2.15747e-08
1.82764e-08
0.0500016
1.62397e-08
1.42969e-08
0.0500016
5.35105e-09
4.58877e-09
7.78399e-11
-4.47901e-11
0.0500004
3.84523e-07
5.08714e-07
0.0500008
4.52665e-07
5.67306e-07
0.0500012
4.53083e-07
5.92165e-07
0.0500015
3.59237e-07
4.62398e-07
0.0500016
1.57534e-07
1.89765e-07
0.0500016
4.00827e-08
4.29046e-08
0.0500016
1.64203e-08
1.80836e-08
0.0500016
1.27064e-08
1.41023e-08
0.0500016
4.17427e-09
4.50102e-09
-7.20995e-11
-5.8023e-11
0.0500004
2.0568e-07
5.08548e-07
0.0500008
2.52351e-07
5.67335e-07
0.0500012
2.47893e-07
5.92665e-07
0.0500015
1.98674e-07
4.62829e-07
0.0500016
9.10206e-08
1.89864e-07
0.0500016
2.41572e-08
4.29978e-08
0.0500016
9.70212e-09
1.81078e-08
0.0500016
8.30882e-09
1.40725e-08
0.0500016
2.55532e-09
4.53826e-09
-3.32499e-10
-3.97059e-11
0.0500004
3.4429e-08
5.08791e-07
0.0500007
5.03852e-08
5.66829e-07
0.0500012
4.43517e-08
5.92514e-07
0.0500015
3.71636e-08
4.62576e-07
0.0500016
2.1246e-08
1.89386e-07
0.0500016
6.39742e-09
4.28132e-08
0.0500016
2.42405e-09
1.80227e-08
0.0500016
3.48999e-09
1.39124e-08
0.0500016
7.76052e-10
4.49999e-09
-5.67715e-10
-1.45054e-11
0.0500004
-1.35506e-07
5.08422e-07
0.0500007
-1.51353e-07
5.67144e-07
0.0500012
-1.59485e-07
5.92976e-07
0.0500015
-1.24872e-07
4.63021e-07
0.0500016
-4.9089e-08
1.89815e-07
0.0500016
-1.15086e-08
4.3131e-08
0.0500016
-4.95011e-09
1.80041e-08
0.0500016
-1.63982e-09
1.37365e-08
0.0500016
-1.02234e-09
4.49613e-09
-6.99784e-10
2.15628e-11
0.0500004
-3.1067e-07
5.08632e-07
0.0500008
-3.51405e-07
5.67246e-07
0.0500012
-3.64663e-07
5.92521e-07
0.0500015
-2.86314e-07
4.62169e-07
0.0500016
-1.17098e-07
1.89464e-07
0.0500016
-2.77428e-08
4.33932e-08
0.0500016
-1.1754e-08
1.80518e-08
0.0500016
-6.79615e-09
1.35783e-08
0.0500016
-2.7197e-09
4.50791e-09
-7.15915e-10
6.44459e-11
0.0500004
-4.96553e-07
5.0858e-07
0.0500008
-5.46933e-07
5.67353e-07
0.0500012
-5.74459e-07
5.92466e-07
0.0500015
-4.4758e-07
4.62166e-07
0.0500016
-1.80304e-07
1.89796e-07
0.0500016
-4.04978e-08
4.37398e-08
0.0500016
-1.73207e-08
1.80517e-08
0.0500016
-1.1506e-08
1.34676e-08
0.0500016
-4.10559e-09
4.54452e-09
-5.95059e-10
1.10504e-10
0.0500004
-7.01924e-07
5.08671e-07
0.0500008
-7.3345e-07
5.67272e-07
0.0500012
-7.8962e-07
5.92283e-07
0.0500015
-6.05638e-07
4.61996e-07
0.0500016
-2.36021e-07
1.89899e-07
0.0500016
-4.95765e-08
4.38923e-08
0.0500016
-2.20286e-08
1.80014e-08
0.0500016
-1.59182e-08
1.33197e-08
0.0500016
-5.25266e-09
4.51208e-09
-3.54963e-10
1.10223e-10
0.0499995
5.08669e-07
0.0499989
5.6718e-07
0.0499984
5.92508e-07
0.0499979
4.6214e-07
0.0499977
1.89923e-07
0.0499977
4.39523e-08
0.0499977
1.804e-08
0.0499976
1.33179e-08
0.0499976
4.53811e-09
1.27497e-10
0.0499994
7.91058e-07
3.29404e-07
0.0499987
8.32445e-07
3.8224e-07
0.0499981
8.80235e-07
3.91026e-07
0.0499975
6.77272e-07
3.08468e-07
0.0499973
2.69497e-07
1.31045e-07
0.0499973
5.85989e-08
3.11678e-08
0.0499973
2.53753e-08
1.30029e-08
0.0499972
1.90197e-08
1.07436e-08
0.0499972
6.09524e-09
3.30286e-09
1.06032e-10
-2.39672e-10
0.0500004
5.76591e-07
3.29574e-07
0.0500008
6.4735e-07
3.82124e-07
0.0500012
6.63864e-07
3.90885e-07
0.0500015
5.20022e-07
3.08596e-07
0.0500016
2.17782e-07
1.31239e-07
0.0500016
5.14491e-08
3.12054e-08
0.0500016
2.13878e-08
1.29472e-08
0.0500016
1.60479e-08
1.07626e-08
0.0500016
5.26471e-09
3.38157e-09
6.27425e-11
-2.22005e-10
0.0500004
3.84538e-07
3.29566e-07
0.0500008
4.52268e-07
3.81721e-07
0.0500012
4.53396e-07
3.91222e-07
0.0500015
3.59503e-07
3.08886e-07
0.0500016
1.57276e-07
1.30997e-07
0.0500016
3.98896e-08
3.10194e-08
0.0500016
1.6339e-08
1.2864e-08
0.0500016
1.25208e-08
1.05755e-08
0.0500016
4.08989e-09
3.29675e-09
-6.67837e-11
-2.19321e-10
0.0500004
2.0551e-07
3.29437e-07
0.0500007
2.52292e-07
3.81824e-07
0.0500011
2.4832e-07
3.91497e-07
0.0500015
1.98934e-07
3.09049e-07
0.0500016
9.09159e-08
1.30996e-07
0.0500016
2.41355e-08
3.11053e-08
0.0500016
9.72614e-09
1.28109e-08
0.0500016
8.13661e-09
1.04901e-08
0.0500016
2.49308e-09
3.32542e-09
-2.98692e-10
-1.90859e-10
0.0500004
3.46255e-08
3.29334e-07
0.0500007
5.04479e-08
3.81857e-07
0.0500011
4.39475e-08
3.91665e-07
0.0500015
3.67403e-08
3.08938e-07
0.0500016
2.1074e-08
1.30913e-07
0.0500016
6.4181e-09
3.12671e-08
0.0500016
2.3848e-09
1.27668e-08
0.0500016
3.26257e-09
1.02624e-08
0.0500016
7.47756e-10
3.29931e-09
-4.93014e-10
-1.51094e-10
0.0500003
-1.35561e-07
3.29373e-07
0.0500007
-1.5115e-07
3.8188e-07
0.0500011
-1.59459e-07
3.91472e-07
0.0500015
-1.25194e-07
3.08554e-07
0.0500016
-4.91923e-08
1.30948e-07
0.0500016
-1.12731e-08
3.17015e-08
0.0500016
-4.8927e-09
1.28024e-08
0.0500016
-1.8219e-09
1.00057e-08
0.0500016
-1.02325e-09
3.31332e-09
-6.29893e-10
-8.96214e-11
0.0500004
-3.10476e-07
3.29465e-07
0.0500007
-3.51271e-07
3.81871e-07
0.0500011
-3.65119e-07
3.91417e-07
0.0500015
-2.86922e-07
3.08246e-07
0.0500016
-1.17241e-07
1.3099e-07
0.0500016
-2.76112e-08
3.21361e-08
0.0500016
-1.18232e-08
1.28643e-08
0.0500016
-6.95217e-09
9.8303e-09
0.0500016
-2.71112e-09
3.32981e-09
-6.83032e-10
-3.63857e-11
0.0500004
-4.96293e-07
3.29403e-07
0.0500007
-5.46864e-07
3.81876e-07
0.0500012
-5.74989e-07
3.91501e-07
0.0500015
-4.48182e-07
3.08278e-07
0.0500016
-1.80489e-07
1.31215e-07
0.0500016
-4.04551e-08
3.2391e-08
0.0500016
-1.74149e-08
1.27472e-08
0.0500016
-1.16192e-08
9.62085e-09
0.0500016
-4.10355e-09
3.34066e-09
-5.89122e-10
1.45807e-12
0.0500004
-7.01705e-07
3.29479e-07
0.0500008
-7.33557e-07
3.81866e-07
0.0500012
-7.89987e-07
3.91412e-07
0.0500015
-6.06127e-07
3.07999e-07
0.0500016
-2.36377e-07
1.31159e-07
0.0500016
-4.96747e-08
3.24666e-08
0.0500016
-2.20442e-08
1.26488e-08
0.0500016
-1.59124e-08
9.43492e-09
0.0500016
-5.2152e-09
3.3316e-09
-3.51892e-10
3.25879e-11
0.0499995
3.29546e-07
0.0499989
3.81911e-07
0.0499983
3.91307e-07
0.0499979
3.07786e-07
0.0499977
1.31106e-07
0.0499977
3.25214e-08
0.0499977
1.26128e-08
0.0499976
9.41766e-09
0.0499976
3.38673e-09
4.31641e-11
0.0499994
7.91056e-07
1.61751e-07
0.0499987
8.32477e-07
1.91761e-07
0.0499981
8.80446e-07
1.94705e-07
0.0499975
6.77576e-07
1.54854e-07
0.0499973
2.69689e-07
6.71116e-08
0.0499973
5.86651e-08
1.55482e-08
0.0499973
2.53766e-08
6.35942e-09
0.0499972
1.9022e-08
6.45643e-09
0.0499972
6.14279e-09
1.70882e-09
1.18913e-10
-5.16994e-10
0.0500004
5.76428e-07
1.61738e-07
0.0500008
6.47427e-07
1.91741e-07
0.0500012
6.64352e-07
1.94834e-07
0.0500015
5.20421e-07
1.55099e-07
0.0500016
2.1786e-07
6.72202e-08
0.0500016
5.15275e-08
1.55073e-08
0.0500016
2.14046e-08
6.29339e-09
0.0500016
1.60145e-08
6.46912e-09
0.0500016
5.30018e-09
1.7821e-09
7.86548e-11
-4.89695e-10
0.0500004
3.84393e-07
1.61537e-07
0.0500007
4.52356e-07
1.91724e-07
0.0500012
4.5368e-07
1.95288e-07
0.0500015
3.59703e-07
1.55356e-07
0.0500016
1.57302e-07
6.71089e-08
0.0500016
3.99814e-08
1.54876e-08
0.0500016
1.62838e-08
6.3133e-09
0.0500016
1.24322e-08
6.29317e-09
0.0500016
4.11736e-09
1.71903e-09
-3.78985e-11
-4.68698e-10
0.0500003
2.05395e-07
1.61384e-07
0.0500007
2.52409e-07
1.91799e-07
0.0500011
2.48555e-07
1.95574e-07
0.0500015
1.9885e-07
1.55286e-07
0.0500016
9.07437e-08
6.69435e-08
0.0500016
2.42779e-08
1.56336e-08
0.0500016
9.64597e-09
6.23715e-09
0.0500016
7.94464e-09
6.10437e-09
0.0500016
2.49333e-09
1.72151e-09
-2.47745e-10
-4.15814e-10
0.0500003
3.45012e-08
1.61509e-07
0.0500007
5.0682e-08
1.92007e-07
0.0500011
4.41739e-08
1.95009e-07
0.0500014
3.67303e-08
1.54808e-07
0.0500016
2.11803e-08
6.72867e-08
0.0500016
6.81342e-09
1.61892e-08
0.0500016
2.37608e-09
6.19128e-09
0.0500016
3.04477e-09
5.84315e-09
0.0500016
7.39486e-10
1.76313e-09
-4.51069e-10
-3.53019e-10
0.0500003
-1.35433e-07
1.61776e-07
0.0500007
-1.51129e-07
1.91874e-07
0.0500011
-1.59712e-07
1.94605e-07
0.0500014
-1.25463e-07
1.54202e-07
0.0500016
-4.89738e-08
6.71578e-08
0.0500016
-1.07938e-08
1.66234e-08
0.0500016
-4.8857e-09
6.23134e-09
0.0500016
-2.04357e-09
5.59877e-09
0.0500016
-1.01209e-09
1.81802e-09
-5.87829e-10
-2.70566e-10
0.0500003
-3.10584e-07
1.61688e-07
0.0500007
-3.5144e-07
1.91894e-07
0.0500011
-3.6501e-07
1.95025e-07
0.0500015
-2.86759e-07
1.54286e-07
0.0500016
-1.16847e-07
6.72573e-08
0.0500016
-2.71904e-08
1.68943e-08
0.0500016
-1.183e-08
6.13675e-09
0.0500016
-7.15243e-09
5.33344e-09
0.0500016
-2.69053e-09
1.78511e-09
-6.33673e-10
-2.29102e-10
0.0500004
-4.96616e-07
1.61803e-07
0.0500007
-5.46923e-07
1.91799e-07
0.0500011
-5.74408e-07
1.94767e-07
0.0500015
-4.47655e-07
1.53872e-07
0.0500016
-1.79971e-07
6.73176e-08
0.0500016
-4.0061e-08
1.72004e-08
0.0500016
-1.73817e-08
6.02858e-09
0.0500016
-1.17471e-08
5.10985e-09
0.0500016
-4.08176e-09
1.83589e-09
-5.48331e-10
-1.74454e-10
0.0500004
-7.01959e-07
1.61548e-07
0.0500007
-7.33424e-07
1.91608e-07
0.0500012
-7.8939e-07
1.95203e-07
0.0500015
-6.05621e-07
1.54155e-07
0.0500016
-2.35986e-07
6.74674e-08
0.0500016
-4.94795e-08
1.72996e-08
0.0500016
-2.20523e-08
5.95531e-09
0.0500016
-1.59909e-08
4.93391e-09
0.0500016
-5.22815e-09
1.85173e-09
-3.42452e-10
-1.3228e-10
0.0499995
1.61553e-07
0.0499989
1.91748e-07
0.0499983
1.9523e-07
0.0499979
1.54065e-07
0.0499977
6.75222e-08
0.0499977
1.74841e-08
0.0499977
6.00873e-09
0.0499976
4.94857e-09
0.0499976
1.92738e-09
-1.07517e-10
0.0499994
7.91295e-07
8.43607e-12
0.0499987
8.3198e-07
-1.05607e-10
0.049998
8.80284e-07
1.67917e-10
0.0499975
6.77577e-07
6.62607e-10
0.0499973
2.69534e-07
5.07247e-10
0.0499973
5.85312e-08
-1.51882e-09
0.0499973
2.53187e-08
-6.75609e-10
0.0499972
1.89577e-08
1.81294e-09
0.0499972
6.14995e-09
3.51353e-11
1.39514e-10
-7.19725e-10
0.0500004
5.76597e-07
-7.07736e-11
0.0500008
6.46879e-07
-1.29686e-10
0.0500012
6.6436e-07
2.69765e-10
0.0500015
5.20274e-07
7.84762e-10
0.0500016
2.17426e-07
5.83598e-10
0.0500016
5.13656e-08
-1.53702e-09
0.0500016
2.13292e-08
-7.28343e-10
0.0500016
1.58574e-08
1.83239e-09
0.0500016
5.26327e-09
6.38939e-11
1.08315e-10
-7.22153e-10
0.0500004
3.8432e-07
-1.79523e-11
0.0500007
4.52369e-07
1.45415e-11
0.0500011
4.53836e-07
6.09041e-11
0.0500015
3.59553e-07
4.47099e-10
0.0500016
1.57194e-07
4.36362e-10
0.0500016
4.0141e-08
-1.49384e-09
0.0500016
1.62418e-08
-7.6305e-10
0.0500016
1.22073e-08
1.60014e-09
0.0500016
4.09434e-09
3.38222e-11
4.12617e-12
-6.63201e-10
0.0500003
2.05503e-07
-7.93568e-11
0.0500007
2.52676e-07
9.18001e-11
0.0500011
2.47944e-07
2.60622e-10
0.0500014
1.98287e-07
4.00969e-10
0.0500016
9.1055e-08
5.20059e-10
0.0500016
2.48266e-08
-1.10862e-09
0.0500016
9.59616e-09
-7.66335e-10
0.0500016
7.68632e-09
1.38537e-09
0.0500016
2.53761e-09
2.95662e-11
-1.84259e-10
-6.17218e-10
0.0500003
3.44387e-08
2.15318e-11
0.0500007
5.088e-08
6.89311e-11
0.0500011
4.41362e-08
-2.30155e-10
0.0500014
3.62659e-08
-2.279e-10
0.0500016
2.13396e-08
6.45209e-10
0.0500016
7.459e-09
-4.93144e-10
0.0500016
2.45283e-09
-6.95681e-10
0.0500016
2.81384e-09
1.15043e-09
0.0500016
8.09585e-10
9.459e-11
-3.74162e-10
-5.42406e-10
0.0500003
-1.35395e-07
4.86458e-11
0.0500007
-1.51291e-07
-3.23045e-11
0.0500011
-1.59503e-07
1.29719e-10
0.0500014
-1.25681e-07
-2.87574e-10
0.0500016
-4.90872e-08
5.44687e-10
0.0500016
-1.05288e-08
-2.73697e-10
0.0500016
-4.91127e-09
-8.08447e-10
0.0500016
-2.2755e-09
8.55391e-10
0.0500016
-9.78104e-10
9.87996e-11
-5.20771e-10
-4.65348e-10
0.0500003
-3.10467e-07
-1.08893e-10
0.0500007
-3.51371e-07
-1.30465e-11
0.0500011
-3.64824e-07
2.77514e-10
0.0500014
-2.86926e-07
-3.37406e-10
0.0500016
-1.16967e-07
8.86945e-10
0.0500016
-2.71355e-08
1.47899e-10
0.0500016
-1.20302e-08
-9.27774e-10
0.0500016
-7.40975e-09
5.67184e-10
0.0500016
-2.70795e-09
1.32883e-10
-5.983e-10
-4.17783e-10
0.0500003
-4.96228e-07
-4.82581e-12
0.0500007
-5.47081e-07
-9.36556e-11
0.0500011
-5.74809e-07
2.64057e-10
0.0500015
-4.48184e-07
-5.40243e-10
0.0500016
-1.80386e-07
8.62732e-10
0.0500016
-4.02129e-08
3.49537e-10
0.0500016
-1.75736e-08
-1.04777e-09
0.0500016
-1.19343e-08
3.81942e-10
0.0500016
-4.06924e-09
2.07407e-10
-5.15852e-10
-3.43068e-10
0.0500004
-7.01656e-07
-1.02844e-10
0.0500007
-7.33586e-07
5.52978e-11
0.0500012
-7.90019e-07
2.9265e-10
0.0500015
-6.063e-07
-8.86967e-10
0.0500016
-2.36309e-07
8.51127e-10
0.0500016
-4.94648e-08
5.52995e-10
0.0500016
-2.20687e-08
-1.1297e-09
0.0500016
-1.60285e-08
2.04494e-10
0.0500016
-5.16078e-09
2.87281e-10
-3.24569e-10
-2.96951e-10
0.0499995
-1.0337e-10
0.0499989
4.07155e-11
0.0499983
3.03059e-10
0.0499979
-9.53374e-10
0.0499977
7.40883e-10
0.0499977
5.51648e-10
0.0499977
-1.14771e-09
0.0499976
1.67157e-10
0.0499976
3.19169e-10
-2.61045e-10
0.0499994
7.91005e-07
-1.61558e-07
0.0499987
8.32293e-07
-1.9203e-07
0.049998
8.80551e-07
-1.94712e-07
0.0499975
6.77817e-07
-1.53926e-07
0.0499973
2.6969e-07
-6.62696e-08
0.0499973
5.85914e-08
-1.84796e-08
0.0499973
2.52965e-08
-7.66073e-09
0.0499972
1.8923e-08
-3.03161e-09
0.0499972
6.15883e-09
-1.65754e-09
1.53382e-10
-8.46658e-10
0.0500004
5.76351e-07
-1.61778e-07
0.0500008
6.47309e-07
-1.91729e-07
0.0500012
6.64561e-07
-1.94724e-07
0.0500015
5.20572e-07
-1.5406e-07
0.0500016
2.17812e-07
-6.61578e-08
0.0500016
5.16676e-08
-1.83344e-08
0.0500016
2.12965e-08
-7.67463e-09
0.0500016
1.56787e-08
-3.04921e-09
0.0500016
5.26042e-09
-1.63898e-09
1.50204e-10
-8.38529e-10
0.0500004
3.84305e-07
-1.61902e-07
0.0500007
4.52563e-07
-1.91451e-07
0.0500011
4.53723e-07
-1.94636e-07
0.0500015
3.5923e-07
-1.54347e-07
0.0500016
1.57261e-07
-6.6243e-08
0.0500016
4.05985e-08
-1.80866e-08
0.0500016
1.62697e-08
-7.61714e-09
0.0500016
1.19497e-08
-3.239e-09
0.0500016
4.11045e-09
-1.64329e-09
6.53974e-11
-7.81844e-10
0.0500003
2.0571e-07
-1.61791e-07
0.0500007
2.52568e-07
-1.9148e-07
0.0500011
2.47827e-07
-1.94865e-07
0.0500014
1.97888e-07
-1.5464e-07
0.0500016
9.10111e-08
-6.6057e-08
0.0500016
2.53007e-08
-1.76079e-08
0.0500016
9.63321e-09
-7.60474e-09
0.0500016
7.44179e-09
-3.4567e-09
0.0500016
2.59962e-09
-1.6299e-09
-1.00854e-10
-7.38933e-10
0.0500003
3.462e-08
-1.6167e-07
0.0500007
5.05111e-08
-1.91888e-07
0.0500011
4.40874e-08
-1.9469e-07
0.0500014
3.59799e-08
-1.54691e-07
0.0500016
2.11696e-08
-6.60635e-08
0.0500016
7.6386e-09
-1.73128e-08
0.0500016
2.32393e-09
-7.62928e-09
0.0500016
2.5133e-09
-3.68837e-09
0.0500016
8.18627e-10
-1.59538e-09
-2.98568e-10
-6.72974e-10
0.0500003
-1.35332e-07
-1.6161e-07
0.0500007
-1.51522e-07
-1.91898e-07
0.0500011
-1.59469e-07
-1.94762e-07
0.0500014
-1.25689e-07
-1.55028e-07
0.0500016
-4.89284e-08
-6.60754e-08
0.0500016
-1.0287e-08
-1.71448e-08
0.0500016
-5.11901e-09
-7.83679e-09
0.0500016
-2.58224e-09
-3.99797e-09
0.0500016
-9.82147e-10
-1.60382e-09
-4.74144e-10
-6.25743e-10
0.0500003
-3.10587e-07
-1.61678e-07
0.0500007
-3.51216e-07
-1.91692e-07
0.0500011
-3.64966e-07
-1.94714e-07
0.0500014
-2.87261e-07
-1.55295e-07
0.0500016
-1.16682e-07
-6.58188e-08
0.0500016
-2.66504e-08
-1.66317e-08
0.0500016
-1.20429e-08
-7.95031e-09
0.0500016
-7.61456e-09
-4.2621e-09
0.0500016
-2.61677e-09
-1.48514e-09
-5.28499e-10
-5.49359e-10
0.0500003
-4.96516e-07
-1.61645e-07
0.0500007
-5.46806e-07
-1.91715e-07
0.0500011
-5.7471e-07
-1.94593e-07
0.0500015
-4.48302e-07
-1.55487e-07
0.0500016
-1.7994e-07
-6.60588e-08
0.0500016
-3.96463e-08
-1.65902e-08
0.0500016
-1.74768e-08
-8.01353e-09
0.0500016
-1.20447e-08
-4.38516e-09
0.0500016
-3.9619e-09
-1.4028e-09
-4.44547e-10
-4.62924e-10
0.0500004
-7.01871e-07
-1.62005e-07
0.0500007
-7.3361e-07
-1.91942e-07
0.0500012
-7.89652e-07
-1.93965e-07
0.0500015
-6.0598e-07
-1.55196e-07
0.0500016
-2.36033e-07
-6.61108e-08
0.0500016
-4.93045e-08
-1.65292e-08
0.0500016
-2.20524e-08
-8.01697e-09
0.0500016
-1.60873e-08
-4.48214e-09
0.0500016
-5.13384e-09
-1.32716e-09
-2.8923e-10
-4.37714e-10
0.0499995
-1.61984e-07
0.0499989
-1.92013e-07
0.0499983
-1.94095e-07
0.0499979
-1.55274e-07
0.0499977
-6.60668e-08
0.0499977
-1.6404e-08
0.0499977
-8.01483e-09
0.0499976
-4.5585e-09
0.0499976
-1.32882e-09
-4.05534e-10
0.0499994
7.91246e-07
-3.29665e-07
0.0499987
8.32283e-07
-3.81815e-07
0.0499981
8.803e-07
-3.90892e-07
0.0499975
6.77458e-07
-3.08028e-07
0.0499973
2.69587e-07
-1.30357e-07
0.0499973
5.8668e-08
-3.33783e-08
0.0499973
2.52785e-08
-1.39633e-08
0.0499972
1.88481e-08
-7.86411e-09
0.0499972
6.1349e-09
-3.22586e-09
1.57881e-10
-8.55272e-10
0.0500004
5.76557e-07
-3.29594e-07
0.0500008
6.47302e-07
-3.81659e-07
0.0500012
6.64185e-07
-3.91094e-07
0.0500015
5.19786e-07
-3.08242e-07
0.0500016
2.17486e-07
-1.30202e-07
0.0500016
5.19208e-08
-3.31083e-08
0.0500016
2.13421e-08
-1.39032e-08
0.0500016
1.55263e-08
-7.90137e-09
0.0500016
5.27366e-09
-3.20939e-09
1.97536e-10
-8.31261e-10
0.0500004
3.84432e-07
-3.29433e-07
0.0500007
4.52491e-07
-3.81504e-07
0.0500012
4.53607e-07
-3.91503e-07
0.0500015
3.58895e-07
-3.08814e-07
0.0500016
1.57296e-07
-1.30329e-07
0.0500016
4.10149e-08
-3.29874e-08
0.0500016
1.63286e-08
-1.39811e-08
0.0500016
1.17764e-08
-8.06102e-09
0.0500016
4.12664e-09
-3.20231e-09
1.22427e-10
-8.03702e-10
0.0500003
2.05564e-07
-3.29503e-07
0.0500007
2.52666e-07
-3.81715e-07
0.0500011
2.4818e-07
-3.91449e-07
0.0500015
1.97889e-07
-3.08703e-07
0.0500016
9.10517e-08
-1.29953e-07
0.0500016
2.55395e-08
-3.25572e-08
0.0500016
9.53134e-09
-1.3978e-08
0.0500016
7.17804e-09
-8.25879e-09
0.0500016
2.56369e-09
-3.18102e-09
-5.93809e-11
-7.55282e-10
0.0500003
3.43849e-08
-3.29453e-07
0.0500007
5.03873e-08
-3.81555e-07
0.0500011
4.44436e-08
-3.91169e-07
0.0500014
3.62302e-08
-3.08801e-07
0.0500016
2.16156e-08
-1.30043e-07
0.0500016
8.13294e-09
-3.25315e-08
0.0500016
2.21246e-09
-1.41914e-08
0.0500016
2.23339e-09
-8.51803e-09
0.0500016
8.55461e-10
-3.20068e-09
-2.50052e-10
-7.23218e-10
0.0500003
-1.35462e-07
-3.29464e-07
0.0500007
-1.51277e-07
-3.81609e-07
0.0500011
-1.59382e-07
-3.91493e-07
0.0500014
-1.26054e-07
-3.09256e-07
0.0500016
-4.87591e-08
-1.29812e-07
0.0500016
-9.81818e-09
-3.20125e-08
0.0500016
-5.23358e-09
-1.41897e-08
0.0500016
-2.84529e-09
-8.72145e-09
0.0500016
-8.55436e-10
-3.11259e-09
-3.97161e-10
-6.53306e-10
0.0500003
-3.1064e-07
-3.29591e-07
0.0500007
-3.51564e-07
-3.81856e-07
0.0500011
-3.64502e-07
-3.90909e-07
0.0500014
-2.87098e-07
-3.09035e-07
0.0500016
-1.16867e-07
-1.29987e-07
0.0500016
-2.66239e-08
-3.2001e-08
0.0500016
-1.2147e-08
-1.4291e-08
0.0500016
-7.77223e-09
-8.87659e-09
0.0500016
-2.50506e-09
-2.99656e-09
-4.53117e-10
-5.75792e-10
0.0500004
-4.96441e-07
-3.29627e-07
0.0500007
-5.47042e-07
-3.81717e-07
0.0500011
-5.74339e-07
-3.90914e-07
0.0500015
-4.48221e-07
-3.0932e-07
0.0500016
-1.80409e-07
-1.30033e-07
0.0500016
-3.98997e-08
-3.17956e-08
0.0500016
-1.76346e-08
-1.42896e-08
0.0500016
-1.21622e-08
-8.99485e-09
0.0500016
-3.91899e-09
-2.94391e-09
-4.12202e-10
-5.05712e-10
0.0500004
-7.01854e-07
-3.29821e-07
0.0500007
-7.33367e-07
-3.81789e-07
0.0500012
-7.89563e-07
-3.90512e-07
0.0500015
-6.06105e-07
-3.09221e-07
0.0500016
-2.36233e-07
-1.30197e-07
0.0500016
-4.93607e-08
-3.18405e-08
0.0500016
-2.21098e-08
-1.44218e-08
0.0500016
-1.61736e-08
-9.11037e-09
0.0500016
-5.12804e-09
-2.88204e-09
-2.7825e-10
-4.9997e-10
0.0499995
-3.29754e-07
0.0499989
-3.81704e-07
0.0499983
-3.90729e-07
0.0499979
-3.09286e-07
0.0499977
-1.30076e-07
0.0499977
-3.16428e-08
0.0499977
-1.43856e-08
0.0499976
-9.18248e-09
0.0499976
-2.86982e-09
-4.54476e-10
0.0499994
7.91223e-07
-5.08724e-07
0.0499987
8.32566e-07
-5.66944e-07
0.0499981
8.80137e-07
-5.92387e-07
0.0499975
6.77231e-07
-4.62432e-07
0.0499973
2.69772e-07
-1.89299e-07
0.0499973
5.89695e-08
-4.43832e-08
0.0499973
2.53579e-08
-1.88823e-08
0.0499972
1.88041e-08
-1.21999e-08
0.0499972
6.18085e-09
-4.41689e-09
1.95405e-10
-6.99052e-10
0.0500004
5.76465e-07
-5.0882e-07
0.0500008
6.47455e-07
-5.67047e-07
0.0500012
6.64169e-07
-5.92096e-07
0.0500015
5.19796e-07
-4.62219e-07
0.0500016
2.17809e-07
-1.89176e-07
0.0500016
5.22747e-08
-4.42161e-08
0.0500016
2.13482e-08
-1.88075e-08
0.0500016
1.54134e-08
-1.22678e-08
0.0500016
5.30934e-09
-4.44565e-09
2.38651e-10
-6.78502e-10
0.0500004
3.84347e-07
-5.08581e-07
0.0500008
4.52447e-07
-5.66918e-07
0.0500012
4.53744e-07
-5.92598e-07
0.0500015
3.59015e-07
-4.62842e-07
0.0500016
1.57567e-07
-1.89396e-07
0.0500016
4.12948e-08
-4.42116e-08
0.0500016
1.62247e-08
-1.89215e-08
0.0500016
1.15692e-08
-1.23868e-08
0.0500016
4.13792e-09
-4.44526e-09
1.60505e-10
-6.74349e-10
0.0500004
2.05726e-07
-5.08866e-07
0.0500007
2.52486e-07
-5.67069e-07
0.0500011
2.47893e-07
-5.92052e-07
0.0500015
1.97476e-07
-4.62233e-07
0.0500016
9.11119e-08
-1.88786e-07
0.0500016
2.58397e-08
-4.37462e-08
0.0500016
9.42215e-09
-1.88516e-08
0.0500016
6.9523e-09
-1.25052e-08
0.0500016
2.61494e-09
-4.4217e-09
-3.88843e-12
-6.33025e-10
0.0500004
3.44244e-08
-5.08513e-07
0.0500007
5.03759e-08
-5.66997e-07
0.0500011
4.46727e-08
-5.92579e-07
0.0500015
3.62141e-08
-4.63059e-07
0.0500016
2.16841e-08
-1.89386e-07
0.0500016
8.32614e-09
-4.40153e-08
0.0500016
2.08563e-09
-1.90805e-08
0.0500016
2.04626e-09
-1.27033e-08
0.0500016
9.26791e-10
-4.41192e-09
-1.74899e-10
-6.06037e-10
0.0500003
-1.35403e-07
-5.08773e-07
0.0500007
-1.51279e-07
-5.67161e-07
0.0500011
-1.59277e-07
-5.92215e-07
0.0500015
-1.26239e-07
-4.62724e-07
0.0500016
-4.89881e-08
-1.88705e-07
0.0500016
-9.78086e-09
-4.33117e-08
0.0500016
-5.299e-09
-1.89634e-08
0.0500016
-2.97154e-09
-1.28054e-08
0.0500016
-7.78587e-10
-4.30598e-09
-3.10656e-10
-5.34471e-10
0.0500004
-3.10711e-07
-5.08759e-07
0.0500007
-3.51436e-07
-5.67175e-07
0.0500011
-3.64433e-07
-5.91912e-07
0.0500015
-2.87309e-07
-4.6287e-07
0.0500016
-1.16896e-07
-1.89328e-07
0.0500016
-2.64118e-08
-4.36464e-08
0.0500016
-1.21315e-08
-1.91305e-08
0.0500016
-7.88654e-09
-1.29254e-08
0.0500016
-2.44842e-09
-4.25937e-09
-3.80875e-10
-4.99197e-10
0.0500004
-4.96602e-07
-5.08873e-07
0.0500007
-5.46979e-07
-5.67151e-07
0.0500012
-5.74212e-07
-5.91846e-07
0.0500015
-4.48259e-07
-4.62893e-07
0.0500016
-1.80333e-07
-1.89197e-07
0.0500016
-3.96718e-08
-4.33855e-08
0.0500016
-1.75746e-08
-1.90674e-08
0.0500016
-1.22564e-08
-1.30188e-08
0.0500016
-3.89894e-09
-4.24255e-09
-3.62697e-10
-4.51982e-10
0.0500004
-7.01811e-07
-5.08944e-07
0.0500008
-7.33513e-07
-5.67089e-07
0.0500012
-7.89863e-07
-5.91775e-07
0.0500015
-6.06221e-07
-4.62965e-07
0.0500016
-2.36061e-07
-1.89256e-07
0.0500016
-4.91212e-08
-4.33135e-08
0.0500016
-2.20599e-08
-1.91656e-08
0.0500016
-1.6238e-08
-1.3078e-08
0.0500016
-5.09877e-09
-4.1449e-09
-2.52432e-10
-4.54213e-10
0.0499995
-5.08856e-07
0.0499989
-5.67219e-07
0.0499983
-5.9184e-07
0.0499979
-4.62809e-07
0.0499977
-1.89244e-07
0.0499977
-4.33162e-08
0.0499977
-1.91566e-08
0.0499976
-1.31236e-08
0.0499976
-4.14029e-09
-4.13786e-10
0.0499994
7.91254e-07
-7.07878e-07
0.0499988
8.32457e-07
-7.43435e-07
0.0499981
8.80208e-07
-7.98682e-07
0.0499976
6.77181e-07
-6.13187e-07
0.0499973
2.69665e-07
-2.40658e-07
0.0499973
5.89319e-08
-5.15992e-08
0.0499973
2.53104e-08
-2.27888e-08
0.0499972
1.87215e-08
-1.61778e-08
0.0499972
6.12848e-09
-5.37853e-09
1.86763e-10
-4.17641e-10
0.0500004
5.76572e-07
-7.07973e-07
0.0500008
6.47386e-07
-7.43502e-07
0.0500012
6.6396e-07
-7.98445e-07
0.0500015
5.19592e-07
-6.12948e-07
0.0500016
2.17914e-07
-2.40478e-07
0.0500016
5.24318e-08
-5.14545e-08
0.0500016
2.12955e-08
-2.27877e-08
0.0500016
1.52658e-08
-1.6303e-08
0.0500016
5.27677e-09
-5.42681e-09
2.39568e-10
-4.00005e-10
0.0500004
3.84438e-07
-7.07753e-07
0.0500008
4.52518e-07
-7.4357e-07
0.0500012
4.53624e-07
-7.98823e-07
0.0500015
3.58647e-07
-6.13485e-07
0.0500016
1.57461e-07
-2.40878e-07
0.0500016
4.13427e-08
-5.15864e-08
0.0500016
1.61114e-08
-2.28212e-08
0.0500016
1.13811e-08
-1.63034e-08
0.0500016
4.12742e-09
-5.39042e-09
1.92434e-10
-3.95431e-10
0.0500004
2.05534e-07
-7.0801e-07
0.0500008
2.52335e-07
-7.43479e-07
0.0500012
2.48226e-07
-7.98182e-07
0.0500015
1.97721e-07
-6.12871e-07
0.0500016
9.12793e-08
-2.404e-07
0.0500016
2.59547e-08
-5.13341e-08
0.0500016
9.35659e-09
-2.27985e-08
0.0500016
6.77836e-09
-1.63734e-08
0.0500016
2.63033e-09
-5.40297e-09
4.39486e-11
-3.87944e-10
0.0500004
3.44114e-08
-7.0769e-07
0.0500007
5.0837e-08
-7.43552e-07
0.0500012
4.43443e-08
-7.98986e-07
0.0500015
3.54981e-08
-6.13841e-07
0.0500016
2.15337e-08
-2.40899e-07
0.0500016
8.47538e-09
-5.14158e-08
0.0500016
2.01393e-09
-2.28519e-08
0.0500016
1.86701e-09
-1.64209e-08
0.0500016
1.00543e-09
-5.33577e-09
-1.26651e-10
-3.69154e-10
0.0500004
-1.35676e-07
-7.07941e-07
0.0500007
-1.51484e-07
-7.43735e-07
0.0500012
-1.58776e-07
-7.98353e-07
0.0500015
-1.26016e-07
-6.13115e-07
0.0500016
-4.90307e-08
-2.40402e-07
0.0500016
-9.70854e-09
-5.11436e-08
0.0500016
-5.29921e-09
-2.28067e-08
0.0500016
-3.06865e-09
-1.64717e-08
0.0500016
-7.05766e-10
-5.3103e-09
-2.85035e-10
-3.34776e-10
0.0500004
-3.10883e-07
-7.07908e-07
0.0500008
-3.51443e-07
-7.43449e-07
0.0500012
-3.64076e-07
-7.98387e-07
0.0500015
-2.87285e-07
-6.13452e-07
0.0500016
-1.17087e-07
-2.40733e-07
0.0500016
-2.64666e-08
-5.12629e-08
0.0500016
-1.22714e-08
-2.2879e-08
0.0500016
-8.0037e-09
-1.65612e-08
0.0500016
-2.38858e-09
-5.30158e-09
-3.75673e-10
-3.22369e-10
0.0500004
-4.9665e-07
-7.07868e-07
0.0500008
-5.4692e-07
-7.43583e-07
0.0500012
-5.74175e-07
-7.98668e-07
0.0500015
-4.48351e-07
-6.13523e-07
0.0500016
-1.80377e-07
-2.40514e-07
0.0500016
-3.9585e-08
-5.09979e-08
0.0500016
-1.76745e-08
-2.28239e-08
0.0500016
-1.23159e-08
-1.66251e-08
0.0500016
-3.804e-09
-5.27467e-09
-3.66505e-10
-2.97671e-10
0.0500004
-7.01863e-07
-7.07917e-07
0.0500008
-7.33557e-07
-7.43629e-07
0.0500012
-7.89589e-07
-7.9841e-07
0.0500015
-6.05971e-07
-6.13293e-07
0.0500016
-2.36161e-07
-2.40636e-07
0.0500016
-4.92557e-08
-5.11472e-08
0.0500016
-2.21481e-08
-2.29136e-08
0.0500016
-1.62917e-08
-1.66787e-08
0.0500016
-5.08386e-09
-5.2589e-09
-2.43715e-10
-2.88522e-10
0.0499995
-7.07784e-07
0.0499989
-7.43565e-07
0.0499984