/*--------------------------------*- C++ -*----------------------------------*\
| =========                 |                                                 |
| \\      /  F ield         | OpenFOAM: The Open Source CFD Toolbox           |
|  \\    /   O peration     | Version:  1.7.x                                 |
|   \\  /    A nd           | Web:      www.OpenFOAM.com                      |
|    \\/     M anipulation  |                                                 |
\*---------------------------------------------------------------------------*/
FoamFile
{
    version     2.0;
    format      ascii;
    class       volVectorField;
    location    "0.4";
    object      U;
}
// * * * * * * * * * * * * * * * * * * * * * * * * * * * * * * * * * * * * * //

dimensions      [0 1 -1 0 0 0 0];

internalField   nonuniform List<vector> 
1000
(
(4.94235 1.05917e-05 9.49565e-06)
(4.90459 1.28526e-05 1.15333e-05)
(5.12494 1.40966e-05 1.28403e-05)
(5.07596 1.11534e-05 1.01585e-05)
(4.9595 4.98299e-06 4.4998e-06)
(4.96388 1.22521e-06 1.08613e-06)
(5.00054 4.17468e-07 3.72592e-07)
(5.00696 2.70458e-07 2.45154e-07)
(5.00058 9.31097e-08 8.3325e-08)
(4.99845 3.27013e-09 2.35724e-09)
(4.94241 1.60651e-05 9.4952e-06)
(4.90474 1.80213e-05 1.15401e-05)
(5.1252 1.87514e-05 1.2834e-05)
(5.07633 1.45138e-05 1.01485e-05)
(4.95992 6.05286e-06 4.50018e-06)
(4.96431 1.32698e-06 1.08837e-06)
(5.00097 5.29443e-07 3.74709e-07)
(5.0074 4.04167e-07 2.48838e-07)
(5.00102 1.35418e-07 8.55051e-08)
(4.99889 2.13913e-09 3.00626e-09)
(4.94241 9.15863e-06 9.49389e-06)
(4.90474 9.80902e-06 1.15396e-05)
(5.1252 9.63053e-06 1.28367e-05)
(5.07633 7.50852e-06 1.01524e-05)
(4.95992 3.08485e-06 4.50276e-06)
(4.96431 7.14395e-07 1.0888e-06)
(5.00097 3.45718e-07 3.74653e-07)
(5.0074 2.76601e-07 2.4949e-07)
(5.00102 8.75263e-08 8.58842e-08)
(4.99889 -6.49026e-10 3.03258e-09)
(4.94241 5.74382e-06 9.49606e-06)
(4.90474 7.23259e-06 1.15398e-05)
(5.1252 7.44655e-06 1.28341e-05)
(5.07633 6.04761e-06 1.01521e-05)
(4.95992 2.82459e-06 4.50469e-06)
(4.96431 7.93772e-07 1.08948e-06)
(5.00097 3.08018e-07 3.73952e-07)
(5.0074 2.2045e-07 2.49613e-07)
(5.00102 6.953e-08 8.69407e-08)
(4.99889 -3.40649e-09 3.08262e-09)
(4.94241 2.40954e-06 9.49968e-06)
(4.90473 3.09866e-06 1.15355e-05)
(5.1252 2.9047e-06 1.2831e-05)
(5.07633 2.25615e-06 1.01524e-05)
(4.95992 1.00943e-06 4.5046e-06)
(4.96431 2.37005e-07 1.08837e-06)
(5.00097 9.59244e-08 3.73424e-07)
(5.0074 1.12716e-07 2.4944e-07)
(5.00102 3.13386e-08 8.75749e-08)
(4.99889 -9.95344e-09 3.51138e-09)
(4.94241 -1.02178e-06 9.49428e-06)
(4.90473 -1.06494e-06 1.15361e-05)
(5.1252 -1.10671e-06 1.28387e-05)
(5.07633 -7.55335e-07 1.01578e-05)
(4.95992 -1.5044e-07 4.50557e-06)
(4.96431 1.9114e-08 1.0877e-06)
(5.00097 3.39346e-11 3.72613e-07)
(5.0074 2.72489e-08 2.49969e-07)
(5.00102 -5.11147e-10 8.81149e-08)
(4.99889 -1.22553e-08 3.35117e-09)
(4.94241 -4.3314e-06 9.49716e-06)
(4.90474 -5.22778e-06 1.15378e-05)
(5.1252 -5.64908e-06 1.28348e-05)
(5.07633 -4.54591e-06 1.01556e-05)
(4.95992 -1.97561e-06 4.50788e-06)
(4.96431 -5.32424e-07 1.08943e-06)
(5.00097 -2.0781e-07 3.72364e-07)
(5.0074 -9.33629e-08 2.49702e-07)
(5.00102 -4.20446e-08 8.76194e-08)
(4.99889 -1.60021e-08 2.90566e-09)
(4.94241 -7.65266e-06 9.49753e-06)
(4.90474 -7.89703e-06 1.15434e-05)
(5.1252 -7.98993e-06 1.28311e-05)
(5.07633 -6.17796e-06 1.01483e-05)
(4.95992 -2.38137e-06 4.50757e-06)
(4.96431 -5.11117e-07 1.09315e-06)
(5.00097 -2.62533e-07 3.73481e-07)
(5.0074 -1.67516e-07 2.49107e-07)
(5.00102 -6.07483e-08 8.84351e-08)
(4.99889 -1.24324e-08 3.62334e-09)
(4.94241 -1.41408e-05 9.49565e-06)
(4.90474 -1.56948e-05 1.15377e-05)
(5.1252 -1.66505e-05 1.28371e-05)
(5.07633 -1.28434e-05 1.01571e-05)
(4.95992 -5.22328e-06 4.51126e-06)
(4.96431 -1.09498e-06 1.09384e-06)
(5.00097 -4.4678e-07 3.74242e-07)
(5.0074 -3.20998e-07 2.49091e-07)
(5.00102 -1.12891e-07 8.78747e-08)
(4.99889 -1.06113e-08 3.43388e-09)
(4.94236 -9.4468e-06 9.49518e-06)
(4.90461 -1.14544e-05 1.15394e-05)
(5.12496 -1.27688e-05 1.28394e-05)
(5.07599 -1.00984e-05 1.01575e-05)
(4.95954 -4.46614e-06 4.51241e-06)
(4.96392 -1.07891e-06 1.09631e-06)
(5.00057 -3.70206e-07 3.73953e-07)
(5.007 -2.38852e-07 2.46755e-07)
(5.00062 -8.66129e-08 8.70498e-08)
(4.99849 -7.96898e-09 3.86388e-09)
(4.94241 1.05913e-05 1.43169e-05)
(4.90472 1.28595e-05 1.60159e-05)
(5.12518 1.40904e-05 1.69312e-05)
(5.0763 1.11434e-05 1.30746e-05)
(4.95988 4.98341e-06 5.3718e-06)
(4.96427 1.22747e-06 1.13926e-06)
(5.00093 4.19593e-07 4.60963e-07)
(5.00736 2.74137e-07 3.61476e-07)
(5.00098 9.52879e-08 1.18693e-07)
(4.99885 3.91568e-09 -3.36103e-10)
(4.94246 1.60634e-05 1.43151e-05)
(4.90487 1.80279e-05 1.60222e-05)
(5.12544 1.87482e-05 1.6928e-05)
(5.07667 1.4508e-05 1.3069e-05)
(4.9603 6.05617e-06 5.37517e-06)
(4.9647 1.32981e-06 1.14213e-06)
(5.00137 5.31547e-07 4.63112e-07)
(5.0078 4.08522e-07 3.65833e-07)
(5.00142 1.3799e-07 1.21282e-07)
(4.99929 2.82114e-09 3.4718e-10)
(4.94246 9.15957e-06 1.43179e-05)
(4.90487 9.80902e-06 1.60144e-05)
(5.12543 9.63117e-06 1.69231e-05)
(5.07667 7.51286e-06 1.30696e-05)
(4.9603 3.08999e-06 5.37297e-06)
(4.9647 7.15815e-07 1.13744e-06)
(5.00137 3.45055e-07 4.58426e-07)
(5.0078 2.77398e-07 3.62268e-07)
(5.00142 8.8986e-08 1.19642e-07)
(4.99929 -5.74449e-10 -8.76723e-11)
(4.94246 5.74964e-06 1.43156e-05)
(4.90487 7.22873e-06 1.60141e-05)
(5.12543 7.44121e-06 1.69348e-05)
(5.07667 6.04822e-06 1.30823e-05)
(4.9603 2.8269e-06 5.37851e-06)
(4.9647 7.93609e-07 1.13978e-06)
(5.00137 3.0687e-07 4.59282e-07)
(5.0078 2.20427e-07 3.62179e-07)
(5.00142 7.123e-08 1.20661e-07)
(4.99929 -2.92503e-09 2.888e-10)
(4.94246 2.40777e-06 1.43237e-05)
(4.90487 3.09508e-06 1.60018e-05)
(5.12543 2.90957e-06 1.69255e-05)
(5.07666 2.26205e-06 1.30751e-05)
(4.9603 1.0105e-06 5.36919e-06)
(4.9647 2.35331e-07 1.13447e-06)
(5.00137 9.46199e-08 4.57315e-07)
(5.0078 1.13094e-07 3.59844e-07)
(5.00142 3.25295e-08 1.20296e-07)
(4.99929 -9.67854e-09 7.35534e-10)
(4.94246 -1.02431e-06 1.43132e-05)
(4.90487 -1.0627e-06 1.60086e-05)
(5.12543 -1.10291e-06 1.69393e-05)
(5.07666 -7.5222e-07 1.30881e-05)
(4.9603 -1.47214e-07 5.37862e-06)
(4.9647 2.01395e-08 1.13864e-06)
(5.00137 -1.05106e-09 4.57308e-07)
(5.0078 2.75104e-08 3.57975e-07)
(5.00142 -4.5289e-10 1.20563e-07)
(4.99929 -1.28614e-08 1.48405e-09)
(4.94246 -4.32818e-06 1.43189e-05)
(4.90487 -5.22065e-06 1.60117e-05)
(5.12543 -5.65702e-06 1.69302e-05)
(5.07666 -4.55577e-06 1.30718e-05)
(4.9603 -1.974e-06 5.37031e-06)
(4.9647 -5.27162e-07 1.13991e-06)
(5.00137 -2.07022e-07 4.56941e-07)
(5.0078 -9.42552e-08 3.55364e-07)
(5.00142 -4.17342e-08 1.2029e-07)
(4.99929 -1.574e-08 1.96237e-09)
(4.94246 -7.65424e-06 1.43183e-05)
(4.90487 -7.89736e-06 1.60158e-05)
(5.12543 -7.98817e-06 1.69271e-05)
(5.07667 -6.17719e-06 1.30691e-05)
(4.9603 -2.37852e-06 5.37733e-06)
(4.9647 -5.06955e-07 1.14865e-06)
(5.00137 -2.60733e-07 4.58906e-07)
(5.0078 -1.68147e-07 3.54379e-07)
(5.00142 -6.04969e-08 1.21516e-07)
(4.99929 -1.1907e-08 2.85959e-09)
(4.94246 -1.41432e-05 1.43213e-05)
(4.90487 -1.5699e-05 1.60156e-05)
(5.12544 -1.66425e-05 1.69226e-05)
(5.07667 -1.28346e-05 1.30625e-05)
(4.9603 -5.21869e-06 5.37324e-06)
(4.9647 -1.09193e-06 1.14697e-06)
(5.00137 -4.46334e-07 4.56577e-07)
(5.0078 -3.2336e-07 3.51399e-07)
(5.00142 -1.14279e-07 1.20152e-07)
(4.99929 -1.03611e-08 2.55127e-09)
(4.94241 -9.44727e-06 1.43224e-05)
(4.90474 -1.14528e-05 1.6012e-05)
(5.1252 -1.27665e-05 1.69223e-05)
(5.07633 -1.0098e-05 1.30608e-05)
(4.95992 -4.465e-06 5.37128e-06)
(4.96431 -1.07644e-06 1.14861e-06)
(5.00097 -3.70498e-07 4.57472e-07)
(5.0074 -2.41201e-07 3.50597e-07)
(5.00102 -8.74409e-08 1.20554e-07)
(4.99889 -7.54449e-09 3.20704e-09)
(4.94241 1.05899e-05 7.97268e-06)
(4.90472 1.28587e-05 8.41916e-06)
(5.12517 1.40932e-05 8.42313e-06)
(5.0763 1.11475e-05 6.53094e-06)
(4.95988 4.98608e-06 2.60128e-06)
(4.96427 1.22795e-06 5.62976e-07)
(5.00093 4.19592e-07 2.82198e-07)
(5.00736 2.74813e-07 2.38658e-07)
(5.00098 9.56942e-08 7.25177e-08)
(4.99885 3.95475e-09 -3.83941e-09)
(4.94246 1.60661e-05 7.97355e-06)
(4.90487 1.80199e-05 8.41942e-06)
(5.12543 1.87434e-05 8.42376e-06)
(5.07667 1.45089e-05 6.53503e-06)
(4.9603 6.05406e-06 2.60617e-06)
(4.9647 1.3252e-06 5.64365e-07)
(5.00137 5.26901e-07 2.81576e-07)
(5.0078 4.04961e-07 2.39497e-07)
(5.00142 1.36366e-07 7.39894e-08)
(4.99929 2.38981e-09 -3.73946e-09)
(4.94246 9.15923e-06 7.97329e-06)
(4.90487 9.80129e-06 8.41236e-06)
(5.12543 9.63798e-06 8.43037e-06)
(5.07667 7.52254e-06 6.54429e-06)
(4.9603 3.08884e-06 2.60484e-06)
(4.9647 7.12372e-07 5.60679e-07)
(5.00137 3.41997e-07 2.78326e-07)
(5.0078 2.72989e-07 2.34981e-07)
(5.00142 8.69187e-08 7.18923e-08)
(4.99929 -7.05449e-10 -3.90534e-09)
(4.94246 5.74963e-06 7.96886e-06)
(4.90486 7.22022e-06 8.41385e-06)
(5.12543 7.44938e-06 8.43966e-06)
(5.07666 6.05361e-06 6.55195e-06)
(4.9603 2.82129e-06 2.60661e-06)
(4.9647 7.9105e-07 5.62645e-07)
(5.00137 3.06991e-07 2.78398e-07)
(5.0078 2.18054e-07 2.34127e-07)
(5.00142 7.02012e-08 7.25035e-08)
(4.99929 -2.58396e-09 -3.48077e-09)
(4.94246 2.40714e-06 7.97169e-06)
(4.90486 3.09321e-06 8.40539e-06)
(5.12543 2.90938e-06 8.44024e-06)
(5.07666 2.26213e-06 6.54717e-06)
(4.9603 1.0097e-06 2.59568e-06)
(4.9647 2.35949e-07 5.59473e-07)
(5.00137 9.39667e-08 2.7642e-07)
(5.0078 1.08515e-07 2.29936e-07)
(5.00142 3.12438e-08 7.13393e-08)
(4.99929 -8.75705e-09 -2.68137e-09)
(4.94246 -1.02664e-06 7.96696e-06)
(4.90486 -1.05513e-06 8.41122e-06)
(5.12543 -1.10215e-06 8.44832e-06)
(5.07666 -7.58758e-07 6.55429e-06)
(4.9603 -1.49389e-07 2.60456e-06)
(4.9647 2.45361e-08 5.68102e-07)
(5.00137 -3.46175e-10 2.76591e-07)
(5.0078 2.27673e-08 2.24752e-07)
(5.00142 -5.22987e-10 7.07001e-08)
(4.99929 -1.10304e-08 -1.50154e-09)
(4.94246 -4.32637e-06 7.97118e-06)
(4.90486 -5.22072e-06 8.41198e-06)
(5.12543 -5.66163e-06 8.43676e-06)
(5.07666 -4.56529e-06 6.53503e-06)
(4.9603 -1.97724e-06 2.59796e-06)
(4.9647 -5.22588e-07 5.75344e-07)
(5.00137 -2.06274e-07 2.78269e-07)
(5.0078 -9.69765e-08 2.20959e-07)
(5.00142 -4.10859e-08 7.14181e-08)
(4.99929 -1.46189e-08 -1.27356e-10)
(4.94246 -7.65032e-06 7.96983e-06)
(4.90486 -7.89334e-06 8.41144e-06)
(5.12543 -7.99792e-06 8.43868e-06)
(5.07666 -6.18794e-06 6.5395e-06)
(4.9603 -2.37897e-06 2.60568e-06)
(4.9647 -5.04314e-07 5.81189e-07)
(5.00137 -2.62987e-07 2.76516e-07)
(5.0078 -1.71525e-07 2.17445e-07)
(5.00142 -6.09041e-08 7.15881e-08)
(4.99929 -1.18603e-08 5.82382e-10)
(4.94246 -1.41367e-05 7.96991e-06)
(4.90487 -1.56985e-05 8.41131e-06)
(5.12543 -1.66553e-05 8.43514e-06)
(5.07667 -1.28517e-05 6.53331e-06)
(4.9603 -5.22932e-06 2.60724e-06)
(4.9647 -1.09502e-06 5.85971e-07)
(5.00137 -4.48224e-07 2.76222e-07)
(5.0078 -3.24787e-07 2.14024e-07)
(5.00142 -1.13864e-07 7.15349e-08)
(4.99929 -1.02801e-08 9.75181e-10)
(4.94241 -9.44562e-06 7.96875e-06)
(4.90474 -1.14578e-05 8.41168e-06)
(5.1252 -1.27689e-05 8.44148e-06)
(5.07633 -1.00997e-05 6.53713e-06)
(4.95992 -4.46782e-06 2.60777e-06)
(4.96431 -1.07715e-06 5.85673e-07)
(5.00097 -3.69276e-07 2.7586e-07)
(5.0074 -2.39642e-07 2.14318e-07)
(5.00102 -8.62002e-08 7.22526e-08)
(4.99889 -7.31791e-09 1.15525e-09)
(4.94241 1.05921e-05 4.77273e-06)
(4.90472 1.28595e-05 5.91656e-06)
(5.12517 1.40905e-05 6.26192e-06)
(5.0763 1.11468e-05 5.07282e-06)
(4.95988 4.98773e-06 2.29656e-06)
(4.96427 1.22858e-06 6.0232e-07)
(5.00093 4.18885e-07 2.33667e-07)
(5.00736 2.74953e-07 1.81351e-07)
(5.00098 9.67443e-08 5.349e-08)
(4.99885 4.02005e-09 -6.7708e-09)
(4.94246 1.60639e-05 4.77778e-06)
(4.90487 1.80208e-05 5.91262e-06)
(5.12543 1.87549e-05 6.25871e-06)
(5.07667 1.45207e-05 5.07488e-06)
(4.9603 6.05913e-06 2.29936e-06)
(4.9647 1.32721e-06 6.02305e-07)
(5.00137 5.27579e-07 2.32529e-07)
(5.0078 4.04806e-07 1.81323e-07)
(5.00142 1.37336e-07 5.51972e-08)
(4.99929 2.74037e-09 -6.15984e-09)
(4.94246 9.15487e-06 4.7764e-06)
(4.90486 9.80345e-06 5.9035e-06)
(5.12543 9.64708e-06 6.26867e-06)
(5.07666 7.52979e-06 5.08171e-06)
(4.9603 3.09043e-06 2.29449e-06)
(4.9647 7.14083e-07 5.99987e-07)
(5.00137 3.41887e-07 2.32694e-07)
(5.0078 2.72043e-07 1.78935e-07)
(5.00142 8.75014e-08 5.41473e-08)
(4.99929 -3.15263e-10 -5.96983e-09)
(4.94246 5.74804e-06 4.77565e-06)
(4.90486 7.22175e-06 5.90581e-06)
(5.12543 7.45108e-06 6.26975e-06)
(5.07666 6.0511e-06 5.07764e-06)
(4.9603 2.81774e-06 2.29e-06)
(4.9647 7.92398e-07 6.00958e-07)
(5.00137 3.04951e-07 2.30548e-07)
(5.0078 2.15369e-07 1.76272e-07)
(5.00142 7.06757e-08 5.46444e-08)
(4.99929 -1.712e-09 -5.08913e-09)
(4.94246 2.40587e-06 4.7693e-06)
(4.90486 3.09245e-06 5.91473e-06)
(5.12543 2.91822e-06 6.27472e-06)
(5.07666 2.26439e-06 5.08004e-06)
(4.9603 1.00845e-06 2.29955e-06)
(4.9647 2.4077e-07 6.10873e-07)
(5.00137 9.27951e-08 2.29837e-07)
(5.0078 1.03706e-07 1.71416e-07)
(5.00142 3.07114e-08 5.46651e-08)
(4.99929 -7.71286e-09 -4.06953e-09)
(4.94246 -1.02481e-06 4.77617e-06)
(4.90486 -1.05611e-06 5.911e-06)
(5.12543 -1.10641e-06 6.25704e-06)
(5.07666 -7.64396e-07 5.05723e-06)
(4.9603 -1.44948e-07 2.2922e-06)
(4.9647 3.6005e-08 6.1965e-07)
(5.00137 8.05209e-10 2.30674e-07)
(5.0078 1.85115e-08 1.66314e-07)
(5.00142 -3.87677e-10 5.59056e-08)
(4.99929 -1.03162e-08 -2.4899e-09)
(4.94246 -4.32532e-06 4.77419e-06)
(4.90486 -5.22044e-06 5.90996e-06)
(5.12543 -5.66667e-06 6.26687e-06)
(5.07666 -4.57056e-06 5.06295e-06)
(4.9603 -1.97285e-06 2.29891e-06)
(4.9647 -5.14077e-07 6.29275e-07)
(5.00137 -2.07098e-07 2.31869e-07)
(5.0078 -1.01573e-07 1.62551e-07)
(5.00142 -4.08594e-08 5.57536e-08)
(4.99929 -1.36611e-08 -1.57353e-09)
(4.94246 -7.65551e-06 4.77371e-06)
(4.90486 -7.89804e-06 5.91174e-06)
(5.12543 -7.98979e-06 6.26625e-06)
(5.07666 -6.17892e-06 5.05777e-06)
(4.9603 -2.36924e-06 2.29962e-06)
(4.9647 -4.96328e-07 6.33474e-07)
(5.00137 -2.62788e-07 2.2831e-07)
(5.0078 -1.75089e-07 1.57101e-07)
(5.00142 -6.03843e-08 5.59961e-08)
(4.99929 -1.08107e-08 -7.00775e-10)
(4.94246 -1.41442e-05 4.77625e-06)
(4.90487 -1.56985e-05 5.90586e-06)
(5.12543 -1.66392e-05 6.27064e-06)
(5.07666 -1.28363e-05 5.062e-06)
(4.9603 -5.21607e-06 2.30083e-06)
(4.9647 -1.08719e-06 6.33914e-07)
(5.00137 -4.46917e-07 2.26402e-07)
(5.0078 -3.26471e-07 1.53439e-07)
(5.00142 -1.13612e-07 5.57033e-08)
(4.99929 -9.80075e-09 1.20489e-10)
(4.94241 -9.44836e-06 4.77546e-06)
(4.90473 -1.14521e-05 5.90745e-06)
(5.1252 -1.27597e-05 6.26768e-06)
(5.07633 -1.00935e-05 5.05643e-06)
(4.95992 -4.46391e-06 2.30139e-06)
(4.96431 -1.07647e-06 6.3799e-07)
(5.00097 -3.70776e-07 2.26901e-07)
(5.0074 -2.40876e-07 1.5308e-07)
(5.00102 -8.67267e-08 5.7174e-08)
(4.99889 -7.37436e-09 3.49879e-10)
(4.9424 1.05949e-05 1.62661e-06)
(4.90472 1.28546e-05 1.97783e-06)
(5.12517 1.40896e-05 1.9236e-06)
(5.07629 1.11491e-05 1.45245e-06)
(4.95988 4.98845e-06 5.62697e-07)
(4.96427 1.22772e-06 7.12182e-08)
(5.00093 4.18384e-07 3.13871e-08)
(5.00736 2.74765e-07 7.7776e-08)
(5.00098 9.73811e-08 1.59756e-08)
(4.99885 4.55736e-09 -1.33388e-08)
(4.94246 1.60698e-05 1.62504e-06)
(4.90487 1.80067e-05 1.97483e-06)
(5.12543 1.87499e-05 1.92679e-06)
(5.07667 1.45173e-05 1.45727e-06)
(4.9603 6.05157e-06 5.63495e-07)
(4.9647 1.32263e-06 6.94132e-08)
(5.00137 5.25861e-07 3.0047e-08)
(5.0078 4.02526e-07 7.81582e-08)
(5.00142 1.37024e-07 1.71924e-08)
(4.99929 3.18815e-09 -1.28463e-08)
(4.94246 9.15711e-06 1.62601e-06)
(4.90486 9.79449e-06 1.97331e-06)
(5.12543 9.64904e-06 1.92416e-06)
(5.07666 7.52531e-06 1.4562e-06)
(4.9603 3.07948e-06 5.6222e-07)
(4.9647 7.11028e-07 7.00957e-08)
(5.00137 3.40024e-07 2.93184e-08)
(5.0078 2.67939e-07 7.35243e-08)
(5.00142 8.63765e-08 1.58966e-08)
(4.99929 3.78312e-10 -1.22169e-08)
(4.94246 5.74254e-06 1.62312e-06)
(4.90486 7.23145e-06 1.9756e-06)
(5.12543 7.45542e-06 1.93542e-06)
(5.07666 6.05194e-06 1.45929e-06)
(4.9603 2.82636e-06 5.61454e-07)
(4.9647 8.01938e-07 7.5367e-08)
(5.00137 3.04125e-07 2.82634e-08)
(5.0078 2.1053e-07 6.88319e-08)
(5.00142 7.07129e-08 1.54678e-08)
(4.99929 -6.80061e-10 -1.11105e-08)
(4.94246 2.40766e-06 1.62487e-06)
(4.90486 3.0984e-06 1.97973e-06)
(5.12543 2.89667e-06 1.91595e-06)
(5.07666 2.24171e-06 1.43866e-06)
(4.9603 1.01189e-06 5.65454e-07)
(4.9647 2.54643e-07 8.92412e-08)
(5.00137 9.4087e-08 2.93041e-08)
(5.0078 9.85548e-08 6.35931e-08)
(5.00142 3.24997e-08 1.72938e-08)
(4.99929 -6.16284e-09 -9.58554e-09)
(4.94246 -1.02176e-06 1.62906e-06)
(4.90486 -1.05989e-06 1.97332e-06)
(5.12543 -1.10999e-06 1.91563e-06)
(5.07666 -7.75838e-07 1.43365e-06)
(4.9603 -1.5004e-07 5.64545e-07)
(4.9647 4.29405e-08 9.73605e-08)
(5.00137 1.67907e-09 2.99412e-08)
(5.0078 1.39081e-08 5.83595e-08)
(5.00142 5.68192e-10 1.83787e-08)
(4.99929 -8.53642e-09 -7.68208e-09)
(4.94246 -4.32883e-06 1.62597e-06)
(4.90486 -5.21998e-06 1.97397e-06)
(5.12543 -5.65241e-06 1.92584e-06)
(5.07666 -4.56473e-06 1.43666e-06)
(4.9603 -1.96982e-06 5.65262e-07)
(4.9647 -5.0876e-07 1.00125e-07)
(5.00137 -2.08638e-07 2.53422e-08)
(5.0078 -1.06177e-07 5.19096e-08)
(5.00142 -4.09845e-08 1.73083e-08)
(4.99929 -1.28199e-08 -6.98552e-09)
(4.94246 -7.64825e-06 1.62859e-06)
(4.90486 -7.89744e-06 1.97406e-06)
(5.12543 -7.99416e-06 1.91971e-06)
(5.07666 -6.18888e-06 1.42751e-06)
(4.9603 -2.37706e-06 5.67344e-07)
(4.9647 -4.99685e-07 1.08194e-07)
(5.00137 -2.68458e-07 2.46192e-08)
(5.0078 -1.80628e-07 4.8123e-08)
(5.00142 -6.09639e-08 1.89699e-08)
(4.99929 -1.01677e-08 -5.68682e-09)
(4.94246 -1.41349e-05 1.62834e-06)
(4.90486 -1.57027e-05 1.98019e-06)
(5.12543 -1.66535e-05 1.92173e-06)
(5.07666 -1.28526e-05 1.42229e-06)
(4.9603 -5.22716e-06 5.67696e-07)
(4.9647 -1.0903e-06 1.10693e-07)
(5.00137 -4.49558e-07 2.24589e-08)
(5.0078 -3.28799e-07 4.37246e-08)
(5.00142 -1.12681e-07 1.96108e-08)
(4.99929 -9.23204e-09 -4.76976e-09)
(4.94241 -9.44638e-06 1.63019e-06)
(4.90473 -1.14561e-05 1.97314e-06)
(5.12519 -1.27715e-05 1.91365e-06)
(5.07633 -1.01049e-05 1.41611e-06)
(4.95992 -4.46685e-06 5.66073e-07)
(4.96431 -1.07286e-06 1.13079e-07)
(5.00097 -3.68711e-07 2.35362e-08)
(5.0074 -2.39993e-07 4.40655e-08)
(5.00102 -8.47138e-08 2.13518e-08)
(4.99889 -7.07925e-09 -3.97286e-09)
(4.94241 1.05905e-05 -1.62613e-06)
(4.90472 1.28564e-05 -1.98186e-06)
(5.12517 1.40936e-05 -1.91865e-06)
(5.07629 1.11515e-05 -1.42901e-06)
(4.95988 4.98837e-06 -5.44084e-07)
(4.96427 1.2267e-06 -1.35454e-07)
(5.00093 4.17536e-07 -5.97209e-08)
(5.00736 2.75334e-07 -3.96461e-09)
(5.00098 9.79564e-08 -1.42896e-08)
(4.99885 4.50433e-09 -1.54713e-08)
(4.94246 1.60633e-05 -1.62768e-06)
(4.90487 1.80163e-05 -1.97984e-06)
(5.12543 1.87554e-05 -1.91706e-06)
(5.07667 1.45243e-05 -1.42721e-06)
(4.9603 6.05853e-06 -5.41134e-07)
(4.9647 1.32603e-06 -1.34494e-07)
(5.00137 5.25503e-07 -6.07331e-08)
(5.0078 4.00571e-07 -3.64512e-09)
(5.00142 1.37261e-07 -1.42087e-08)
(4.99929 3.87361e-09 -1.58554e-08)
(4.94246 9.15296e-06 -1.62724e-06)
(4.90486 9.80422e-06 -1.97238e-06)
(5.12543 9.65572e-06 -1.92016e-06)
(5.07666 7.53181e-06 -1.43563e-06)
(4.9603 3.0884e-06 -5.43981e-07)
(4.9647 7.20048e-07 -1.30547e-07)
(5.00137 3.40105e-07 -6.04186e-08)
(5.0078 2.62729e-07 -8.43483e-09)
(5.00142 8.57855e-08 -1.43001e-08)
(4.99929 1.42947e-09 -1.43174e-08)
(4.94246 5.74691e-06 -1.62724e-06)
(4.90486 7.22818e-06 -1.9712e-06)
(5.12543 7.44287e-06 -1.92202e-06)
(5.07666 6.03356e-06 -1.44069e-06)
(4.9603 2.82099e-06 -5.39595e-07)
(4.9647 8.1155e-07 -1.19007e-07)
(5.00137 3.04951e-07 -5.92035e-08)
(5.0078 2.05442e-07 -1.26033e-08)
(5.00142 7.20797e-08 -1.40663e-08)
(4.99929 9.28886e-10 -1.35487e-08)
(4.94246 2.41182e-06 -1.62397e-06)
(4.90486 3.09017e-06 -1.97672e-06)
(5.12543 2.89842e-06 -1.92442e-06)
(5.07666 2.23875e-06 -1.44843e-06)
(4.9603 1.01153e-06 -5.4248e-07)
(4.9647 2.62763e-07 -1.11422e-07)
(5.00137 9.4473e-08 -5.84535e-08)
(5.0078 9.32295e-08 -1.73092e-08)
(5.00142 3.36285e-08 -1.31656e-08)
(4.99929 -4.28402e-09 -1.18183e-08)
(4.94246 -1.02372e-06 -1.62698e-06)
(4.90486 -1.06188e-06 -1.97514e-06)
(5.12543 -1.09651e-06 -1.91041e-06)
(5.07666 -7.66377e-07 -1.44337e-06)
(4.9603 -1.45154e-07 -5.40352e-07)
(4.9647 4.68994e-08 -1.0886e-07)
(5.00137 -3.15584e-09 -6.31995e-08)
(5.0078 6.82666e-09 -2.43136e-08)
(5.00142 -3.82287e-10 -1.40902e-08)
(4.99929 -7.71895e-09 -1.09743e-08)
(4.94246 -4.32579e-06 -1.63059e-06)
(4.90486 -5.2197e-06 -1.97417e-06)
(5.12543 -5.66257e-06 -1.91556e-06)
(5.07666 -4.57669e-06 -1.45217e-06)
(4.9603 -1.97004e-06 -5.32685e-07)
(4.9647 -5.03235e-07 -9.48739e-08)
(5.00137 -2.12403e-07 -6.4324e-08)
(5.0078 -1.11801e-07 -3.03377e-08)
(5.00142 -4.02612e-08 -1.17678e-08)
(4.99929 -1.16499e-08 -9.5666e-09)
(4.94246 -7.65315e-06 -1.62865e-06)
(4.90486 -7.89181e-06 -1.97685e-06)
(5.12543 -7.9939e-06 -1.91062e-06)
(5.07666 -6.19328e-06 -1.45272e-06)
(4.9603 -2.36682e-06 -5.36602e-07)
(4.9647 -4.85758e-07 -9.52416e-08)
(5.00137 -2.6567e-07 -6.80399e-08)
(5.0078 -1.83278e-07 -3.37987e-08)
(5.00142 -5.80871e-08 -1.03339e-08)
(4.99929 -8.59248e-09 -7.96238e-09)
(4.94246 -1.41426e-05 -1.63302e-06)
(4.90486 -1.56993e-05 -1.97907e-06)
(5.12543 -1.66451e-05 -1.90741e-06)
(5.07666 -1.28475e-05 -1.45397e-06)
(4.9603 -5.21723e-06 -5.33938e-07)
(4.9647 -1.08223e-06 -8.85194e-08)
(5.00137 -4.47982e-07 -6.66331e-08)
(5.0078 -3.3052e-07 -3.58498e-08)
(5.00142 -1.11223e-07 -7.71073e-09)
(4.99929 -8.09118e-09 -7.09316e-09)
(4.94241 -9.4465e-06 -1.63478e-06)
(4.90473 -1.14591e-05 -1.97261e-06)
(5.1252 -1.27676e-05 -1.89875e-06)
(5.07633 -1.00995e-05 -1.44919e-06)
(4.95992 -4.46541e-06 -5.33871e-07)
(4.96431 -1.07401e-06 -8.95803e-08)
(5.00097 -3.69674e-07 -6.79902e-08)
(5.0074 -2.40523e-07 -3.75268e-08)
(5.00102 -8.49752e-08 -8.29871e-09)
(4.99889 -6.57075e-09 -6.43184e-09)
(4.94241 1.05934e-05 -4.77848e-06)
(4.90472 1.28567e-05 -5.91521e-06)
(5.12517 1.40914e-05 -6.25608e-06)
(5.0763 1.1151e-05 -5.0511e-06)
(4.95988 4.99155e-06 -2.27679e-06)
(4.96427 1.22874e-06 -6.57715e-07)
(5.00093 4.17404e-07 -2.58607e-07)
(5.00736 2.75089e-07 -1.18881e-07)
(5.00098 9.74571e-08 -5.30426e-08)
(4.99885 4.16997e-09 -1.87871e-08)
(4.94246 1.60687e-05 -4.77555e-06)
(4.90487 1.80162e-05 -5.9087e-06)
(5.12543 1.87485e-05 -6.26225e-06)
(5.07667 1.45108e-05 -5.05976e-06)
(4.9603 6.05182e-06 -2.27503e-06)
(4.9647 1.32761e-06 -6.52444e-07)
(5.00137 5.25196e-07 -2.57743e-07)
(5.0078 3.9806e-07 -1.19781e-07)
(5.00142 1.37006e-07 -5.27374e-08)
(4.99929 4.34473e-09 -1.83093e-08)
(4.94246 9.15754e-06 -4.7748e-06)
(4.90486 9.80312e-06 -5.91002e-06)
(5.12543 9.64409e-06 -6.26523e-06)
(5.07666 7.51183e-06 -5.06729e-06)
(4.9603 3.08104e-06 -2.27703e-06)
(4.9647 7.26523e-07 -6.47619e-07)
(5.00137 3.41555e-07 -2.5699e-07)
(5.0078 2.59002e-07 -1.22436e-07)
(5.00142 8.65335e-08 -5.20863e-08)
(4.99929 2.6904e-09 -1.73663e-08)
(4.94246 5.74581e-06 -4.77291e-06)
(4.90486 7.22712e-06 -5.91013e-06)
(5.12543 7.45116e-06 -6.2713e-06)
(5.07666 6.03913e-06 -5.07466e-06)
(4.9603 2.82786e-06 -2.27442e-06)
(4.9647 8.2107e-07 -6.3973e-07)
(5.00137 3.06107e-07 -2.57817e-07)
(5.0078 2.01661e-07 -1.27052e-07)
(5.00142 7.1857e-08 -5.18482e-08)
(4.99929 1.81765e-09 -1.64134e-08)
(4.94246 2.40792e-06 -4.77677e-06)
(4.90486 3.09446e-06 -5.91073e-06)
(5.12543 2.90828e-06 -6.2564e-06)
(5.07666 2.23903e-06 -5.06458e-06)
(4.9603 1.01112e-06 -2.26823e-06)
(4.9647 2.64778e-07 -6.33475e-07)
(5.00137 9.00856e-08 -2.59026e-07)
(5.0078 8.68337e-08 -1.31595e-07)
(5.00142 3.24726e-08 -5.2011e-08)
(4.99929 -3.58772e-09 -1.56112e-08)
(4.94246 -1.02838e-06 -4.77293e-06)
(4.90486 -1.05735e-06 -5.90687e-06)
(5.12543 -1.10113e-06 -6.27008e-06)
(5.07666 -7.79597e-07 -5.08501e-06)
(4.9603 -1.40236e-07 -2.27355e-06)
(4.9647 5.94855e-08 -6.29885e-07)
(5.00137 -4.18683e-09 -2.63066e-07)
(5.0078 8.76797e-10 -1.37346e-07)
(5.00142 1.95508e-09 -5.13704e-08)
(4.99929 -6.27261e-09 -1.44241e-08)
(4.94246 -4.33051e-06 -4.77807e-06)
(4.90486 -5.22168e-06 -5.90918e-06)
(5.12543 -5.65264e-06 -6.25895e-06)
(5.07666 -4.57407e-06 -5.08051e-06)
(4.9603 -1.96606e-06 -2.2684e-06)
(4.9647 -4.95132e-07 -6.21375e-07)
(5.00137 -2.13461e-07 -2.63826e-07)
(5.0078 -1.15645e-07 -1.41074e-07)
(5.00142 -3.72247e-08 -4.8267e-08)
(4.99929 -9.81035e-09 -1.25618e-08)
(4.94246 -7.65069e-06 -4.77765e-06)
(4.90486 -7.90234e-06 -5.90901e-06)
(5.12543 -7.98601e-06 -6.25987e-06)
(5.07666 -6.19066e-06 -5.08757e-06)
(4.9603 -2.37831e-06 -2.27307e-06)
(4.9647 -4.9332e-07 -6.19233e-07)
(5.00137 -2.70768e-07 -2.64275e-07)
(5.0078 -1.86142e-07 -1.43345e-07)
(5.00142 -5.68935e-08 -4.68044e-08)
(4.99929 -7.69442e-09 -1.0815e-08)
(4.94246 -1.41411e-05 -4.78005e-06)
(4.90487 -1.56985e-05 -5.91441e-06)
(5.12543 -1.66418e-05 -6.24649e-06)
(5.07666 -1.28493e-05 -5.08028e-06)
(4.9603 -5.22454e-06 -2.27848e-06)
(4.9647 -1.08471e-06 -6.23609e-07)
(5.00137 -4.49545e-07 -2.66921e-07)
(5.0078 -3.32554e-07 -1.45896e-07)
(5.00142 -1.10668e-07 -4.64702e-08)
(4.99929 -7.71466e-09 -1.04321e-08)
(4.94241 -9.44815e-06 -4.77798e-06)
(4.90473 -1.14497e-05 -5.90989e-06)
(5.1252 -1.2763e-05 -6.25532e-06)
(5.07633 -1.01002e-05 -5.0873e-06)
(4.95992 -4.46691e-06 -2.27695e-06)
(4.96431 -1.07397e-06 -6.17536e-07)
(5.00097 -3.70085e-07 -2.65456e-07)
(5.0074 -2.41678e-07 -1.47369e-07)
(5.00102 -8.53072e-08 -4.59691e-08)
(4.99889 -6.41966e-09 -9.75185e-09)
(4.94241 1.05935e-05 -7.97222e-06)
(4.90472 1.28631e-05 -8.40461e-06)
(5.12517 1.40877e-05 -8.43175e-06)
(5.0763 1.11433e-05 -6.54164e-06)
(4.95988 4.99056e-06 -2.596e-06)
(4.96427 1.23219e-06 -5.97909e-07)
(5.00093 4.18494e-07 -2.98651e-07)
(5.00736 2.74471e-07 -1.86493e-07)
(5.00098 9.82817e-08 -6.91575e-08)
(4.99885 4.99254e-09 -1.45203e-08)
(4.94246 1.6067e-05 -7.97398e-06)
(4.90487 1.80216e-05 -8.40455e-06)
(5.12543 1.87465e-05 -8.43006e-06)
(5.07667 1.45086e-05 -6.54141e-06)
(4.9603 6.0587e-06 -2.5934e-06)
(4.9647 1.33635e-06 -5.93667e-07)
(5.00137 5.27199e-07 -2.96761e-07)
(5.0078 3.97054e-07 -1.87107e-07)
(5.00142 1.3823e-07 -6.88851e-08)
(4.99929 5.29326e-09 -1.38511e-08)
(4.94246 9.15561e-06 -7.97097e-06)
(4.90487 9.80279e-06 -8.399e-06)
(5.12543 9.64667e-06 -8.43851e-06)
(5.07667 7.5169e-06 -6.55189e-06)
(4.9603 3.08902e-06 -2.59411e-06)
(4.9647 7.32769e-07 -5.91361e-07)
(5.00137 3.40038e-07 -2.99292e-07)
(5.0078 2.55451e-07 -1.90585e-07)
(5.00142 8.66734e-08 -6.93428e-08)
(4.99929 3.32463e-09 -1.38737e-08)
(4.94246 5.74494e-06 -7.97515e-06)
(4.90486 7.22746e-06 -8.40528e-06)
(5.12543 7.4517e-06 -8.43189e-06)
(5.07666 6.03626e-06 -6.54269e-06)
(4.9603 2.82978e-06 -2.58338e-06)
(4.9647 8.25679e-07 -5.82294e-07)
(5.00137 3.02903e-07 -2.98501e-07)
(5.0078 1.96286e-07 -1.94029e-07)
(5.00142 7.21402e-08 -6.87965e-08)
(4.99929 2.67466e-09 -1.28245e-08)
(4.94246 2.41179e-06 -7.96948e-06)
(4.90486 3.09342e-06 -8.40065e-06)
(5.12543 2.89964e-06 -8.43522e-06)
(5.07666 2.22839e-06 -6.55478e-06)
(4.9603 1.01239e-06 -2.59318e-06)
(4.9647 2.72612e-07 -5.87417e-07)
(5.00137 8.92219e-08 -3.04781e-07)
(5.0078 8.29351e-08 -1.99708e-07)
(5.00142 3.40843e-08 -6.94343e-08)
(4.99929 -2.31585e-09 -1.2262e-08)
(4.94246 -1.02501e-06 -7.97167e-06)
(4.90486 -1.06032e-06 -8.4048e-06)
(5.12543 -1.09906e-06 -8.43625e-06)
(5.07666 -7.82321e-07 -6.5554e-06)
(4.9603 -1.45329e-07 -2.58023e-06)
(4.9647 5.89848e-08 -5.71024e-07)
(5.00137 -7.96279e-09 -3.01621e-07)
(5.0078 -2.65863e-09 -2.02299e-07)
(5.00142 3.37168e-09 -6.66115e-08)
(4.99929 -4.67563e-09 -1.06957e-08)
(4.94246 -4.33051e-06 -7.97142e-06)
(4.90486 -5.22183e-06 -8.41096e-06)
(5.12543 -5.65236e-06 -8.42657e-06)
(5.07666 -4.57925e-06 -6.55386e-06)
(4.9603 -1.96956e-06 -2.59298e-06)
(4.9647 -4.92587e-07 -5.79571e-07)
(5.00137 -2.1362e-07 -3.06713e-07)
(5.0078 -1.17821e-07 -2.05165e-07)
(5.00142 -3.56943e-08 -6.53158e-08)
(4.99929 -8.03377e-09 -9.73585e-09)
(4.94246 -7.65514e-06 -7.97473e-06)
(4.90486 -7.89704e-06 -8.4061e-06)
(5.12543 -7.98144e-06 -8.42378e-06)
(5.07666 -6.19305e-06 -6.55705e-06)
(4.9603 -2.3769e-06 -2.59109e-06)
(4.9647 -4.87996e-07 -5.73889e-07)
(5.00137 -2.68772e-07 -3.04816e-07)
(5.0078 -1.88105e-07 -2.0714e-07)
(5.00142 -5.63001e-08 -6.47924e-08)
(4.99929 -6.46926e-09 -8.55327e-09)
(4.94246 -1.4143e-05 -7.97851e-06)
(4.90487 -1.57004e-05 -8.40368e-06)
(5.12543 -1.66409e-05 -8.41979e-06)
(5.07667 -1.28478e-05 -6.55892e-06)
(4.9603 -5.22152e-06 -2.59179e-06)
(4.9647 -1.08075e-06 -5.71036e-07)
(5.00137 -4.49253e-07 -3.06514e-07)
(5.0078 -3.34578e-07 -2.08772e-07)
(5.00142 -1.10409e-07 -6.26729e-08)
(4.99929 -7.04382e-09 -8.66206e-09)
(4.94241 -9.44446e-06 -7.97657e-06)
(4.90474 -1.14548e-05 -8.40843e-06)
(5.1252 -1.27768e-05 -8.42265e-06)
(5.07633 -1.0107e-05 -6.55529e-06)
(4.95992 -4.46429e-06 -2.58964e-06)
(4.96431 -1.06815e-06 -5.69999e-07)
(5.00097 -3.68285e-07 -3.06269e-07)
(5.0074 -2.42035e-07 -2.10094e-07)
(5.00102 -8.44887e-08 -6.28108e-08)
(4.99889 -5.89537e-09 -7.79487e-09)
(4.94241 1.05917e-05 -1.43214e-05)
(4.90472 1.2857e-05 -1.6006e-05)
(5.12518 1.40936e-05 -1.69269e-05)
(5.0763 1.1152e-05 -1.30731e-05)
(4.95988 4.99473e-06 -5.3656e-06)
(4.96427 1.23326e-06 -1.15408e-06)
(5.00093 4.19395e-07 -4.69486e-07)
(5.00736 2.74521e-07 -3.32677e-07)
(5.00098 9.77411e-08 -1.18248e-07)
(4.99885 4.84785e-09 -1.20165e-08)
(4.94246 1.607e-05 -1.43237e-05)
(4.90487 1.80221e-05 -1.60106e-05)
(5.12544 1.87422e-05 -1.69189e-05)
(5.07667 1.45013e-05 -1.30641e-05)
(4.9603 6.0543e-06 -5.3605e-06)
(4.9647 1.33445e-06 -1.1506e-06)
(5.00137 5.24653e-07 -4.68841e-07)
(5.0078 3.94006e-07 -3.3497e-07)
(5.00142 1.36829e-07 -1.19623e-07)
(4.99929 4.99414e-09 -1.17364e-08)
(4.94246 9.15637e-06 -1.43172e-05)
(4.90487 9.80239e-06 -1.60089e-05)
(5.12543 9.64226e-06 -1.69318e-05)
(5.07667 7.51056e-06 -1.30824e-05)
(4.9603 3.09106e-06 -5.37245e-06)
(4.9647 7.37901e-07 -1.15471e-06)
(5.00137 3.39828e-07 -4.71263e-07)
(5.0078 2.52086e-07 -3.36566e-07)
(5.00142 8.66404e-08 -1.19246e-07)
(4.99929 3.73255e-09 -1.16742e-08)
(4.94246 5.7473e-06 -1.43244e-05)
(4.90487 7.22546e-06 -1.60106e-05)
(5.12543 7.45445e-06 -1.69156e-05)
(5.07667 6.03623e-06 -1.30644e-05)
(4.9603 2.8288e-06 -5.3566e-06)
(4.9647 8.25005e-07 -1.14516e-06)
(5.00137 3.00612e-07 -4.69121e-07)
(5.0078 1.92543e-07 -3.37995e-07)
(5.00142 7.17757e-08 -1.18963e-07)
(4.99929 3.43422e-09 -1.11936e-08)
(4.94246 2.4114e-06 -1.43152e-05)
(4.90487 3.09493e-06 -1.601e-05)
(5.12543 2.9039e-06 -1.6934e-05)
(5.07666 2.22632e-06 -1.30895e-05)
(4.9603 1.01427e-06 -5.37334e-06)